Water-ethanol mixture in organosilica
14934
    1Sil     Ob    1   0.248   1.663  11.100 -0.1648  0.3732  0.1387
    1Sil     Ob    2   0.807   1.653  10.315 -0.4574  0.5191  0.6223
    1Sil     Ob    3   0.058   2.151  10.664 -0.4470  0.2601 -0.0996
    1Sil     Ob    4   0.613   2.154  11.046  0.3715 -0.6100 -0.6458
    1Sil     Ob    5   0.433   2.038  10.259 -0.2211 -0.0356 -0.2686
    1Sil     Ob    6   0.427   2.001  11.126  0.4042 -0.3973  0.2166
    1Sil     Ob    7   0.196   1.984  10.326 -0.1445 -0.3152  0.3187
    1Sil     Ob    8   0.714   1.958  10.731  0.1778 -0.2354 -0.3836
    1Sil     Ob    9   0.229   1.730  10.846 -0.0446 -0.2593 -0.1767
    1Sil     Ob   10   0.507   1.729  10.453  0.5038  0.6398  0.6161
    1Sil     Ob   11   0.211   1.907  11.026  0.6966  0.2021  0.0398
    1Sil     Ob   12  -0.042   1.901  10.237  0.0061  0.2417  0.1067
    1Sil     Ob   13   0.528   1.782  10.703 -0.0065  0.7308  0.1930
    1Sil     Ob   14   0.135   1.908  10.695 -0.4944  0.5327 -0.0694
    1Sil     Ob   15   0.656   1.894  11.097 -0.1793  0.1118  0.3145
    1Sil     Ob   16   0.347   1.794  10.249 -0.2217  0.0807 -0.5335
    1Sil     Ob   17   0.598   1.739  10.216 -0.0967 -0.5596 -0.1937
    1Sil     Ob   18   0.020   1.734  10.995  0.1001  0.3866 -0.3298
    1Sil     Ob   19   0.305   1.723  10.606 -0.5206  0.1413  0.2340
    1Sil     Ob   20  -0.010   1.974  10.491  0.4823  0.7160  0.6932
    1Sil     Ob   21   0.512   1.956  10.891  0.3806  0.1064  0.0104
    1Sil     Ob   22   0.199   1.642  12.278  0.0415  0.7696 -0.0959
    1Sil     Ob   23   0.788   1.652  11.489  0.2020  0.2320  0.3924
    1Sil     Ob   24   0.018   2.140  11.838 -0.5454 -0.7215 -0.4185
    1Sil     Ob   25   0.543   2.127  12.244 -0.0594 -0.4568 -0.2543
    1Sil     Ob   26   0.371   2.035  11.458 -0.0963  0.7019 -0.0254
    1Sil     Ob   27   0.363   1.966  12.328  0.7905 -0.0717 -0.0268
    1Sil     Ob   28   0.126   1.961  11.521  0.0538  0.4347  0.4613
    1Sil     Ob   29   0.665   1.982  11.929  0.4015  0.5501  0.0750
    1Sil     Ob   30   0.177   1.722  12.045  0.3162  0.0340 -0.5643
    1Sil     Ob   31   0.748   1.711  11.238  0.1442 -0.4806  0.3772
    1Sil     Ob   32   0.457   1.729  11.636  0.2607 -0.1510  0.0236
    1Sil     Ob   33   0.145   1.895  12.227 -0.9943  0.1100  0.2629
    1Sil     Ob   34  -0.104   1.899  11.426  0.4231  0.0935 -0.5326
    1Sil     Ob   35   0.498   1.786  11.885 -0.2547 -0.1781  0.2399
    1Sil     Ob   36   0.094   1.893  11.868 -0.6858  0.2772  0.2667
    1Sil     Ob   37   0.609   1.897  12.292  0.0028  0.6296 -0.1013
    1Sil     Ob   38   0.311   1.792  11.439 -0.2867  0.1918 -0.3722
    1Sil     Ob   39   0.553   1.720  11.398 -0.4199  0.2967  0.0057
    1Sil     Ob   40  -0.036   1.720  12.195  0.5188 -0.5702  0.2019
    1Sil     Ob   41   0.260   1.704  11.799  0.0020 -0.5648 -0.4533
    1Sil     Ob   42  -0.079   1.977  11.677  0.1683  0.2866 -0.2032
    1Sil     Ob   43   0.453   1.937  12.089 -0.3295  0.5092 -0.7305
    1Sil     Ob   44   0.209   1.972  11.273  0.3657 -0.2799  0.1308
    1Sil     Ob   45   0.223   2.156  11.094 -0.3855  0.3035 -0.5109
    1Sil     Ob   46   0.824   2.139  10.312  0.0807 -0.3415 -0.5579
    1Sil     Ob   47   0.482   2.026  10.647 -0.2026 -0.2360 -0.3916
    1Sil     Ob   48   0.057   2.632  10.652  0.0255  0.0334 -0.1186
    1Sil     Ob   49   0.600   2.635  11.043  0.1233 -0.7263 -0.4197
    1Sil     Ob   50   0.442   2.530  10.259 -0.0339 -0.1370 -0.3110
    1Sil     Ob   51   0.429   2.463  11.124 -0.1943  0.1540  0.1381
    1Sil     Ob   52   0.191   2.473  10.333  0.6952  0.2684 -0.4187
    1Sil     Ob   53   0.730   2.452  10.738  0.6143  0.4862  0.4753
    1Sil     Ob   54   0.208   2.222  10.850  0.0310 -0.0675  0.0321
    1Sil     Ob   55   0.509   2.193  10.450  0.6083  0.1088 -0.0603
    1Sil     Ob   56   0.211   2.398  11.031  0.5740 -0.1309 -0.1402
    1Sil     Ob   57  -0.036   2.386  10.248 -0.2343 -0.2620 -0.2569
    1Sil     Ob   58   0.546   2.273  10.695  0.7724  0.4200 -0.0076
    1Sil     Ob   59   0.133   2.396  10.679  0.1112  0.0002 -0.4483
    1Sil     Ob   60   0.676   2.387  11.083  0.1437  0.4115  0.3825
    1Sil     Ob   61   0.349   2.282  10.269  0.6398 -0.7439  0.2488
    1Sil     Ob   62   0.592   2.240  10.223 -0.4858  0.1969  0.2972
    1Sil     Ob   63   0.008   2.240  10.995 -0.2608  0.3955  0.0721
    1Sil     Ob   64   0.302   2.206  10.609  0.2483  1.1503  0.3700
    1Sil     Ob   65  -0.017   2.462  10.489  0.1873  0.0313  0.3782
    1Sil     Ob   66   0.514   2.450  10.885 -0.2404 -0.3331  0.0874
    1Sil     Ob   67   0.185   2.143  12.299 -0.1465 -0.4977 -0.3453
    1Sil     Ob   68   0.771   2.153  11.499 -0.0582  0.3155 -0.7885
    1Sil     Ob   69   0.427   2.036  11.847 -0.5101 -0.3350  0.1754
    1Sil     Ob   70   0.014   2.635  11.850  0.3726 -0.4444 -0.2438
    1Sil     Ob   71   0.546   2.625  12.225  0.4151 -0.0339  0.2056
    1Sil     Ob   72   0.390   2.530  11.454 -0.7136 -0.0592  0.4044
    1Sil     Ob   73   0.388   2.459  12.324  0.3115 -0.5371 -0.0673
    1Sil     Ob   74   0.137   2.493  11.511  0.0374 -0.3763  0.1518
    1Sil     Ob   75   0.667   2.462  11.918  0.3527 -0.4438  0.0172
    1Sil     Ob   76   0.172   2.216  12.044  0.3296  0.2656  0.3117
    1Sil     Ob   77   0.758   2.209  11.243 -0.2580 -0.2181 -0.4488
    1Sil     Ob   78   0.462   2.200  11.632  0.3971  0.2374  0.3494
    1Sil     Ob   79   0.158   2.390  12.232  0.2982 -0.1938 -0.9726
    1Sil     Ob   80  -0.080   2.391  11.422  1.0163 -0.0654 -0.5359
    1Sil     Ob   81   0.489   2.276  11.877 -0.2603  0.2974 -0.0668
    1Sil     Ob   82   0.075   2.386  11.895 -0.4317  0.2664 -0.3556
    1Sil     Ob   83   0.621   2.372  12.266 -0.4284 -0.4738 -0.4303
    1Sil     Ob   84   0.296   2.288  11.453  0.1639  0.5430 -0.0486
    1Sil     Ob   85   0.545   2.223  11.385  0.0991 -0.2323 -0.4597
    1Sil     Ob   86  -0.043   2.208  12.200 -0.2220 -0.5575 -0.5078
    1Sil     Ob   87   0.257   2.224  11.796  0.4415 -0.6362 -0.4971
    1Sil     Ob   88  -0.063   2.452  11.679 -0.2334 -0.2297  0.6503
    1Sil     Ob   89   0.465   2.436  12.073  0.2001  0.1661  0.8386
    1Sil     Ob   90   0.223   2.454  11.270  0.2987 -1.0392  0.0738
    1Sil     Ob   91   0.251   2.645  11.094 -0.5921 -0.3293  0.1350
    1Sil     Ob   92   0.821   2.638  10.312 -0.0748 -0.1308  0.4139
    1Sil     Ob   93   0.498   2.519  10.631  0.0587 -0.2069 -0.2195
    1Sil     Ob   94   0.068   3.124  10.668  0.3881 -0.3950  0.1701
    1Sil     Ob   95   0.598   3.136  11.043  0.6984  0.5432 -0.0360
    1Sil     Ob   96   0.431   3.028  10.273  0.4294  0.5007  0.2653
    1Sil     Ob   97   0.423   2.954  11.116 -0.1146 -0.0020 -0.4042
    1Sil     Ob   98   0.191   2.953  10.328 -0.0679  0.4541 -0.0900
    1Sil     Ob   99   0.729   2.923  10.718  0.5645 -0.0106  0.2354
    1Sil     Ob  100   0.215   2.715  10.847 -0.1634  0.2631  0.1222
    1Sil     Ob  101   0.511   2.695  10.442 -0.2203 -0.0852 -0.2413
    1Sil     Ob  102   0.192   2.888  11.035 -0.5481 -0.0858  0.0468
    1Sil     Ob  103  -0.048   2.880  10.248 -0.0527 -0.2881  0.0126
    1Sil     Ob  104   0.521   2.764  10.697  0.0547 -0.8639  0.3528
    1Sil     Ob  105   0.143   2.884  10.667  0.8475 -0.2966  0.3487
    1Sil     Ob  106   0.669   2.888  11.075 -0.1102  0.4576  0.0946
    1Sil     Ob  107   0.360   2.773  10.263  0.0238  0.0288 -0.1880
    1Sil     Ob  108   0.603   2.723  10.208  0.4364  0.0802  0.4906
    1Sil     Ob  109   0.015   2.695  11.008 -0.3049 -0.3920  0.4963
    1Sil     Ob  110   0.303   2.687  10.606  0.4014  0.3939 -0.0915
    1Sil     Ob  111  -0.017   2.963  10.486 -1.0389  0.0635 -0.1384
    1Sil     Ob  112   0.526   2.972  10.872  0.1436 -0.0617 -0.0491
    1Sil     Ob  113   0.201   2.628  12.302  0.7709 -0.5392  0.0007
    1Sil     Ob  114   0.786   2.639  11.486  0.0134 -0.7143 -0.1376
    1Sil     Ob  115   0.437   2.519  11.829  0.4330 -0.3033 -0.4539
    1Sil     Ob  116   0.003   3.121  11.873 -0.0827 -0.4463  0.3534
    1Sil     Ob  117   0.557   3.119  12.215 -0.7153 -0.1055  0.6360
    1Sil     Ob  118   0.377   3.019  11.476  0.4764  0.3200 -0.0284
    1Sil     Ob  119   0.387   2.943  12.313  0.0611 -0.2975  0.0537
    1Sil     Ob  120   0.138   2.948  11.525 -0.6385 -0.3874 -0.7046
    1Sil     Ob  121   0.678   2.965  11.916  0.0451 -0.3586  0.7092
    1Sil     Ob  122   0.180   2.709  12.052  0.3151 -0.2013 -0.3708
    1Sil     Ob  123   0.742   2.706  11.251  0.1786  0.0209 -0.3016
    1Sil     Ob  124   0.457   2.698  11.638  0.9837 -0.0990 -0.0297
    1Sil     Ob  125   0.144   2.874  12.256  0.0435 -0.1955  0.2799
    1Sil     Ob  126  -0.104   2.885  11.447 -0.1318 -0.3351  0.2252
    1Sil     Ob  127   0.494   2.772  11.870 -0.1713  0.4042 -0.0160
    1Sil     Ob  128   0.084   2.880  11.880  0.3079 -0.3647 -0.4272
    1Sil     Ob  129   0.619   2.872  12.244 -0.2612 -0.2464  0.2359
    1Sil     Ob  130   0.306   2.769  11.451  0.1376 -0.3298 -0.3232
    1Sil     Ob  131   0.551   2.709  11.404  0.8590  0.2239 -0.2666
    1Sil     Ob  132  -0.029   2.700  12.198  0.0887  0.3643 -0.3116
    1Sil     Ob  133   0.257   2.704  11.796  0.1918  0.7010 -0.2417
    1Sil     Ob  134  -0.064   2.961  11.684 -0.2619 -0.0389 -0.0640
    1Sil     Ob  135   0.461   2.946  12.055 -0.1732  0.4980 -0.3377
    1Sil     Ob  136   0.218   2.948  11.283  0.0469  0.0041 -0.2350
    1Sil     Ob  137   0.245   3.131  11.096  0.1650 -0.3532 -0.2208
    1Sil     Ob  138   0.834   3.134  10.281 -0.2647 -0.4710  0.0534
    1Sil     Ob  139   0.499   3.009  10.625  0.3435 -0.5482  0.0035
    1Sil     Ob  140   0.059   3.602  10.675 -0.1108 -0.0355  0.2156
    1Sil     Ob  141   0.591   3.628  11.045  0.7117  0.7669 -0.7119
    1Sil     Ob  142   0.411   3.517  10.287 -0.1587 -0.5282 -0.1551
    1Sil     Ob  143   0.428   3.459  11.123  0.1447  0.1324 -0.0603
    1Sil     Ob  144   0.177   3.427  10.344  0.1686 -0.9030  0.2222
    1Sil     Ob  145   0.721   3.437  10.719  0.1932 -0.4052  0.1368
    1Sil     Ob  146   0.226   3.199  10.849  0.3495 -0.1004 -0.1294
    1Sil     Ob  147   0.502   3.190  10.444 -0.5995 -0.6447  0.9560
    1Sil     Ob  148   0.197   3.370  11.038  0.3903  0.6628  0.2602
    1Sil     Ob  149  -0.063   3.381  10.261  0.4595  0.3096  0.3251
    1Sil     Ob  150   0.532   3.263  10.690 -0.4444  0.1005  0.4050
    1Sil     Ob  151   0.138   3.364  10.680 -1.1264 -0.3129  0.1741
    1Sil     Ob  152   0.672   3.386  11.074 -0.5689  0.3612 -0.2729
    1Sil     Ob  153   0.346   3.267  10.244 -0.3559 -1.1370 -0.0686
    1Sil     Ob  154   0.596   3.200  10.208 -0.3572  0.4914  0.0223
    1Sil     Ob  155   0.017   3.203  11.008 -0.1575 -0.8681 -0.0865
    1Sil     Ob  156   0.298   3.180  10.599 -0.1066 -0.2732  0.1425
    1Sil     Ob  157  -0.019   3.444  10.499 -0.1542  0.4932 -0.0280
    1Sil     Ob  158   0.513   3.439  10.869  0.1277 -0.0572  0.1963
    1Sil     Ob  159   0.192   3.126  12.302 -0.3744 -0.0937  0.4214
    1Sil     Ob  160   0.793   3.128  11.492 -0.3533  0.6755  0.5619
    1Sil     Ob  161   0.453   3.019  11.812  0.4783 -0.1609  0.3690
    1Sil     Ob  162   0.007   3.619  11.851 -0.6665  0.5135  0.4775
    1Sil     Ob  163   0.545   3.611  12.243 -0.0374 -0.3591  0.3313
    1Sil     Ob  164   0.382   3.509  11.468 -0.3556 -0.3193  0.3351
    1Sil     Ob  165   0.378   3.430  12.316  0.7197  0.2011  0.0698
    1Sil     Ob  166   0.139   3.428  11.519 -0.2188 -0.2188  0.1528
    1Sil     Ob  167   0.667   3.439  11.927  0.2368 -0.1075  0.0399
    1Sil     Ob  168   0.161   3.196  12.060 -0.0582 -0.0533  0.6142
    1Sil     Ob  169   0.756   3.207  11.246  0.3797  0.9024  0.5058
    1Sil     Ob  170   0.435   3.207  11.647 -0.7796 -0.4063 -0.2103
    1Sil     Ob  171   0.132   3.370  12.246  0.1707 -0.2210 -0.2330
    1Sil     Ob  172  -0.115   3.380  11.424  0.3012 -0.0330  0.1408
    1Sil     Ob  173   0.478   3.265  11.893 -0.2112  0.3123  0.3369
    1Sil     Ob  174   0.084   3.368  11.872  0.3343 -0.4983 -0.4045
    1Sil     Ob  175   0.619   3.371  12.261  0.2618 -0.1567 -0.2474
    1Sil     Ob  176   0.312   3.260  11.426  0.1734  0.1321  0.1338
    1Sil     Ob  177   0.555   3.182  11.406  0.0863  0.6128 -0.5309
    1Sil     Ob  178  -0.044   3.184  12.219 -0.0428 -0.1745 -0.1485
    1Sil     Ob  179   0.248   3.178  11.813 -0.4666  0.4633  0.2353
    1Sil     Ob  180  -0.071   3.437  11.666  0.4265 -0.3913  0.0592
    1Sil     Ob  181   0.455   3.433  12.068 -0.4611  0.4874  0.1346
    1Sil     Ob  182   0.222   3.442  11.276  0.3771  0.0102  0.5958
    1Sil     Ob  183   0.239   3.624  11.096  0.5862  0.3139  0.0589
    1Sil     Ob  184   0.828   3.629  10.295 -0.8150  0.3233  0.6893
    1Sil     Ob  185   0.500   3.518  10.622  0.0425 -0.5288 -0.2999
    1Sil     Ob  186   0.054   4.109  10.673  0.4524 -0.1346 -0.1489
    1Sil     Ob  187   0.598   4.124  11.046  0.1515  0.0352  0.0700
    1Sil     Ob  188   0.426   4.012  10.282 -0.4590  0.0971 -0.0487
    1Sil     Ob  189   0.420   3.951  11.127  0.2379 -0.4717  0.4502
    1Sil     Ob  190   0.180   3.943  10.338 -0.5226  0.0978 -0.5526
    1Sil     Ob  191   0.721   3.934  10.731  0.3904 -0.4057 -0.1105
    1Sil     Ob  192   0.217   3.692  10.850 -0.0716 -0.2869  0.4365
    1Sil     Ob  193   0.495   3.700  10.444 -0.4046  0.6420  0.2872
    1Sil     Ob  194   0.184   3.874  11.027 -0.8754  0.3135  0.3958
    1Sil     Ob  195  -0.056   3.873  10.249  0.7127 -0.0607  0.0209
    1Sil     Ob  196   0.522   3.762  10.698 -0.8668  0.5836 -0.4481
    1Sil     Ob  197   0.129   3.853  10.652  0.1875 -0.1768  0.1155
    1Sil     Ob  198   0.665   3.867  11.078  0.0227 -0.5959 -0.2654
    1Sil     Ob  199   0.344   3.765  10.269  0.1943 -0.0316  0.0510
    1Sil     Ob  200   0.592   3.698  10.207 -0.1930 -0.6302  0.0078
    1Sil     Ob  201   0.011   3.687  11.008  0.5180  0.3042 -0.1543
    1Sil     Ob  202   0.296   3.672  10.601 -0.2477 -0.3245  0.7825
    1Sil     Ob  203  -0.029   3.953  10.487  0.1897  0.0152  0.0781
    1Sil     Ob  204   0.520   3.937  10.888 -0.2413 -0.3359 -0.4841
    1Sil     Ob  205   0.195   3.618  12.283  0.5325  1.0512 -0.2412
    1Sil     Ob  206   0.764   3.618  11.491 -0.5808  0.2972 -0.0988
    1Sil     Ob  207   0.452   3.517  11.816  0.0698 -0.0195  0.0953
    1Sil     Ob  208   0.002   4.111  11.868  0.2363  0.0698 -0.6843
    1Sil     Ob  209   0.548   4.108  12.235 -0.4634 -0.2040 -0.2931
    1Sil     Ob  210   0.364   4.014  11.478 -0.6276  1.1709  0.2943
    1Sil     Ob  211   0.372   3.948  12.328 -0.2476  0.1273 -0.8602
    1Sil     Ob  212   0.125   3.943  11.526 -0.2865  0.1033 -0.1272
    1Sil     Ob  213   0.670   3.920  11.927 -0.2049 -0.0590 -0.3020
    1Sil     Ob  214   0.171   3.699  12.034  0.0098 -0.4950  0.2089
    1Sil     Ob  215   0.737   3.700  11.243 -0.1687  0.9059 -0.0956
    1Sil     Ob  216   0.455   3.694  11.637  0.1744  0.1975  0.3616
    1Sil     Ob  217   0.148   3.868  12.227 -0.0769  0.0538 -0.3114
    1Sil     Ob  218  -0.111   3.870  11.444 -0.0266 -0.2573 -0.3590
    1Sil     Ob  219   0.482   3.758  11.882  0.4289 -0.5118 -0.0823
    1Sil     Ob  220   0.089   3.874  11.871 -0.4543  1.0144  0.3871
    1Sil     Ob  221   0.603   3.855  12.290  0.3790  0.5159 -0.0034
    1Sil     Ob  222   0.293   3.761  11.442  0.0546  0.1563  0.8624
    1Sil     Ob  223   0.536   3.706  11.396  0.2906  0.0834 -0.0921
    1Sil     Ob  224  -0.041   3.703  12.188  0.3133 -0.1887 -0.4863
    1Sil     Ob  225   0.251   3.680  11.791 -0.1129 -0.1789  0.2849
    1Sil     Ob  226  -0.072   3.940  11.685  0.1767 -0.5066 -0.0156
    1Sil     Ob  227   0.460   3.919  12.084  0.4396 -0.3066 -0.4484
    1Sil     Ob  228   0.210   3.943  11.281 -0.4063 -0.2162 -0.1392
    1Sil     Ob  229   0.247   4.127  11.100  0.5843  0.0074  0.4003
    1Sil     Ob  230   0.819   4.128  10.303 -0.1925  0.3242 -0.4325
    1Sil     Ob  231   0.488   4.001  10.633 -0.6429 -0.2144 -0.1600
    1Sil     Ob  232   0.053   4.608  10.690  0.0896 -0.1351  0.8615
    1Sil     Ob  233   0.593   4.606  11.040  0.1486 -0.7788 -0.4256
    1Sil     Ob  234   0.419   4.508  10.278 -0.4355  0.1319 -0.5480
    1Sil     Ob  235   0.421   4.441  11.125 -0.2305 -0.2471 -0.5932
    1Sil     Ob  236   0.183   4.432  10.342  0.5899  0.3216 -0.3397
    1Sil     Ob  237   0.719   4.431  10.737  0.3576  0.0244 -0.2671
    1Sil     Ob  238   0.207   4.185  10.852  0.6470 -0.2175  0.0209
    1Sil     Ob  239   0.504   4.187  10.451  0.2364 -0.1350  0.4497
    1Sil     Ob  240   0.188   4.373  11.033 -0.0320  0.6818 -0.1045
    1Sil     Ob  241  -0.058   4.375  10.258 -0.1088 -0.3717  0.6330
    1Sil     Ob  242   0.547   4.245  10.690  0.1782 -0.2258  0.7822
    1Sil     Ob  243   0.134   4.356  10.685 -0.0616 -0.0472 -0.0732
    1Sil     Ob  244   0.670   4.363  11.082 -0.1987 -0.3708  0.3632
    1Sil     Ob  245   0.344   4.265  10.248 -0.2451 -0.4034 -0.2070
    1Sil     Ob  246   0.584   4.195  10.210  0.5085  0.0725 -0.2795
    1Sil     Ob  247   0.009   4.192  11.016 -0.6083  0.1103 -0.0056
    1Sil     Ob  248   0.300   4.173  10.613  0.3472 -0.5302  0.2358
    1Sil     Ob  249  -0.029   4.442  10.509  0.1843 -0.8638  0.1719
    1Sil     Ob  250   0.505   4.420  10.883 -0.5492 -0.4713 -0.1959
    1Sil     Ob  251   0.180   4.118  12.307 -0.0752  0.2015 -0.0837
    1Sil     Ob  252   0.757   4.110  11.501  0.1638  0.3407 -0.3374
    1Sil     Ob  253   0.441   4.010  11.832  0.0384  0.0072  0.8213
    1Sil     Ob  254   0.009   4.615  11.850  0.3715 -0.1125 -0.2200
    1Sil     Ob  255   0.538   4.604  12.233 -0.0196 -0.5945 -0.2075
    1Sil     Ob  256   0.374   4.504  11.462 -0.0592  0.5018 -0.2203
    1Sil     Ob  257   0.375   4.421  12.318 -0.0050  0.2602 -0.7593
    1Sil     Ob  258   0.127   4.427  11.529 -0.2108  0.2525  0.3546
    1Sil     Ob  259   0.663   4.411  11.923 -0.2836 -0.4016  0.1294
    1Sil     Ob  260   0.160   4.201  12.060  0.2193 -0.1090  0.9759
    1Sil     Ob  261   0.740   4.174  11.254 -0.1958 -0.2682  0.2651
    1Sil     Ob  262   0.440   4.201  11.645 -0.1940 -0.1669 -0.3706
    1Sil     Ob  263   0.128   4.365  12.250  0.2024 -0.4193 -0.1285
    1Sil     Ob  264  -0.100   4.367  11.443 -0.1159 -0.2227 -0.0978
    1Sil     Ob  265   0.476   4.253  11.898  0.2871  0.0253 -0.3549
    1Sil     Ob  266   0.080   4.364  11.870 -0.2681  0.4141 -0.2813
    1Sil     Ob  267   0.611   4.359  12.255  0.4797  0.6628  0.0345
    1Sil     Ob  268   0.297   4.258  11.431  0.1765 -0.0336 -0.2449
    1Sil     Ob  269   0.536   4.185  11.400  0.4408 -0.0849 -0.1913
    1Sil     Ob  270  -0.046   4.186  12.204 -0.3984 -0.2015  0.6152
    1Sil     Ob  271   0.241   4.183  11.817  0.0742 -0.4907 -0.5215
    1Sil     Ob  272  -0.074   4.442  11.685 -0.4248 -0.2879 -0.7070
    1Sil     Ob  273   0.451   4.428  12.073 -0.5995 -0.0099 -0.0381
    1Sil     Ob  274   0.213   4.439  11.286  0.2945 -0.2357 -0.3337
    1Sil     Ob  275   0.257   4.616  11.095  0.0450  0.5963  0.5017
    1Sil     Ob  276   0.825   4.611  10.319  0.5382 -0.1771 -0.9738
    1Sil     Ob  277   0.482   4.495  10.630  0.1883  0.0308  0.2698
    1Sil     Ob  278   0.429   1.481  11.129  0.0046  0.2669 -0.3675
    1Sil     Ob  279   0.187   1.488  10.336 -0.2617  0.0321 -0.1176
    1Sil     Ob  280   0.720   1.469  10.738 -0.2014 -0.0088 -0.5197
    1Sil     Ob  281   0.223   4.697  10.856  0.8010  0.2881 -0.0888
    1Sil     Ob  282   0.504   4.671  10.446  0.5844 -0.1310 -0.3774
    1Sil     Ob  283   0.201   4.872  11.037  0.7625 -0.1631 -0.5802
    1Sil     Ob  284  -0.039   1.405  10.240  0.2982 -0.5465  0.1691
    1Sil     Ob  285   0.534   4.737  10.700 -0.2036  0.5354 -0.3952
    1Sil     Ob  286   0.138   1.410  10.676  0.3884  0.6149 -0.6609
    1Sil     Ob  287   0.672   1.406  11.070  0.4284  0.2583  0.2105
    1Sil     Ob  288   0.344   1.304  10.268 -0.7884 -0.3238  0.3972
    1Sil     Ob  289   0.597   4.676  10.209 -0.1721  0.2857  0.7918
    1Sil     Ob  290   0.024   4.687  11.007 -0.2567 -0.3652  0.3128
    1Sil     Ob  291   0.299   4.669  10.604  0.2717  0.2316  0.0843
    1Sil     Ob  292  -0.019   1.482  10.481  0.0978  0.4586 -0.4371
    1Sil     Ob  293   0.503   1.458  10.893 -0.8434  0.4361 -0.1516
    1Sil     Ob  294   0.191   4.607  12.290  0.0742 -0.2439  0.2232
    1Sil     Ob  295   0.787   4.603  11.486  0.4231 -0.2407 -0.5118
    1Sil     Ob  296   0.442   4.496  11.822 -0.3522  0.0593  0.5337
    1Sil     Ob  297   0.362   1.448  12.302 -0.0793  0.0262 -0.2083
    1Sil     Ob  298   0.129   1.478  11.527 -0.2772  0.2023 -0.0052
    1Sil     Ob  299   0.682   1.471  11.922  0.1672 -0.1337  0.4833
    1Sil     Ob  300   0.166   4.678  12.047  0.2747 -0.3712  0.2895
    1Sil     Ob  301   0.755   4.683  11.238  0.4390  0.0763  0.1595
    1Sil     Ob  302   0.457   4.675  11.638 -0.2674 -0.2824  0.0321
    1Sil     Ob  303   0.129   4.856  12.234  0.1350 -0.4298 -0.6095
    1Sil     Ob  304  -0.101   1.409  11.436  0.1229 -0.2827  0.4743
    1Sil     Ob  305   0.490   4.750  11.889 -0.1278  0.0833  0.1359
    1Sil     Ob  306   0.082   1.415  11.881 -0.0411  0.5962 -0.3754
    1Sil     Ob  307   0.618   1.401  12.269  0.2116 -0.3834 -0.3623
    1Sil     Ob  308   0.305   1.304  11.449 -0.0574  0.8640 -0.3027
    1Sil     Ob  309   0.553   4.685  11.389 -0.0845  0.4574 -0.2357
    1Sil     Ob  310  -0.046   4.661  12.214  0.2716 -0.9797 -0.1636
    1Sil     Ob  311   0.252   4.683  11.797  0.2122 -0.2745 -0.0020
    1Sil     Ob  312  -0.072   1.495  11.684 -0.0401 -0.5280 -0.3821
    1Sil     Ob  313   0.474   1.494  12.076 -0.0672  0.0675  0.0769
    1Sil     Ob  314   0.219   1.483  11.288 -0.8442  0.5057  0.5484
    1Sil     Ob  315   1.056   1.653  11.105 -0.2069  0.1241  0.8587
    1Sil     Ob  316   1.661   1.665  10.313 -0.2801  0.5244 -0.2643
    1Sil     Ob  317   0.886   2.136  10.670 -0.0899 -0.4432 -0.1506
    1Sil     Ob  318   1.439   2.142  11.053  0.4132  1.0396 -0.0250
    1Sil     Ob  319   1.273   2.047  10.290 -0.6007  0.1374 -0.1730
    1Sil     Ob  320   1.256   1.969  11.126 -0.9965 -0.4438 -0.2427
    1Sil     Ob  321   1.025   1.982  10.347  0.1591 -0.4394 -0.0276
    1Sil     Ob  322   1.551   1.978  10.740 -0.4158 -0.3525  0.2255
    1Sil     Ob  323   1.042   1.725  10.858  0.2143  0.2882 -0.3078
    1Sil     Ob  324   1.338   1.734  10.459  0.0299  0.1740 -0.1212
    1Sil     Ob  325   1.024   1.895  11.043  0.5946  0.3149  0.0147
    1Sil     Ob  326   0.802   1.896  10.239  0.1860 -0.1576 -0.0922
    1Sil     Ob  327   1.376   1.796  10.704 -0.3567  0.1475 -0.3975
    1Sil     Ob  328   0.960   1.897  10.692 -0.4043  0.0611 -0.6383
    1Sil     Ob  329   1.499   1.903  11.080 -0.0932 -0.0756 -0.1965
    1Sil     Ob  330   1.190   1.807  10.262 -0.7949  0.6153 -0.0355
    1Sil     Ob  331   1.430   1.721  10.218 -0.3302 -0.2257 -0.1191
    1Sil     Ob  332   0.834   1.735  10.998  0.1505  0.0985  0.4138
    1Sil     Ob  333   1.135   1.719  10.616 -0.0667  0.9788 -0.5407
    1Sil     Ob  334   0.815   1.953  10.494 -0.1187 -0.1763  1.1492
    1Sil     Ob  335   1.347   1.971  10.893  0.0209 -0.6558 -0.0623
    1Sil     Ob  336   1.006   1.654  12.295  0.3739  0.2729  0.0541
    1Sil     Ob  337   1.609   1.656  11.497 -0.3187 -0.1874 -0.4405
    1Sil     Ob  338   0.837   2.155  11.852  0.5895  0.6534 -0.2124
    1Sil     Ob  339   1.374   2.129  12.239  0.0414 -0.1413  0.0657
    1Sil     Ob  340   1.223   2.033  11.468  0.0813 -0.0194 -0.0226
    1Sil     Ob  341   1.200   1.954  12.312  0.2356  0.4008  0.0238
    1Sil     Ob  342   0.970   1.975  11.530  0.1811 -0.5936 -0.3622
    1Sil     Ob  343   1.497   1.978  11.925 -0.1407 -0.2397  0.4789
    1Sil     Ob  344   0.986   1.720  12.044 -0.1723 -0.6968  0.2596
    1Sil     Ob  345   1.574   1.725  11.252 -0.2101  0.0259  0.1661
    1Sil     Ob  346   1.300   1.701  11.651 -0.2052 -0.0619 -0.8890
    1Sil     Ob  347   0.959   1.898  12.244  0.6192 -0.2941  0.4067
    1Sil     Ob  348   0.736   1.903  11.429  0.1758  0.0168 -0.2967
    1Sil     Ob  349   1.319   1.794  11.886 -0.2514  0.3187  0.2598
    1Sil     Ob  350   0.913   1.902  11.885  0.6549  0.0587  0.5894
    1Sil     Ob  351   1.441   1.887  12.259 -0.3607  0.3534 -0.0665
    1Sil     Ob  352   1.139   1.791  11.457 -0.2975  0.0252  0.0102
    1Sil     Ob  353   1.379   1.726  11.406  0.4423  0.5664  0.4428
    1Sil     Ob  354   0.776   1.727  12.208 -0.6803 -0.3724 -0.0261
    1Sil     Ob  355   1.088   1.732  11.799 -0.4187 -0.8314  0.0317
    1Sil     Ob  356   0.762   1.970  11.680  0.2692 -0.2049 -0.0483
    1Sil     Ob  357   1.283   1.964  12.074 -0.6845  0.2925 -0.1962
    1Sil     Ob  358   1.056   1.972  11.288 -0.1128 -0.1049 -0.1537
    1Sil     Ob  359   1.071   2.146  11.104  0.5129  0.2951 -0.3891
    1Sil     Ob  360   1.660   2.152  10.311 -0.1213 -0.1236 -0.5952
    1Sil     Ob  361   1.317   2.043  10.654  0.0642 -0.2280  0.2700
    1Sil     Ob  362   0.887   2.632  10.660 -0.0943 -0.5569  0.1193
    1Sil     Ob  363   1.439   2.641  11.052 -0.6331 -0.2561 -0.3203
    1Sil     Ob  364   1.261   2.534  10.260 -0.0713 -0.2603 -0.2389
    1Sil     Ob  365   1.268   2.468  11.135  0.0271  0.2279  0.5409
    1Sil     Ob  366   1.020   2.466  10.342  1.0949 -0.4431 -0.2412
    1Sil     Ob  367   1.549   2.455  10.726  0.7504  0.0756 -0.7459
    1Sil     Ob  368   1.048   2.203  10.851 -0.7350 -0.0097  0.5975
    1Sil     Ob  369   1.346   2.216  10.460  0.0023  0.5753 -0.7684
    1Sil     Ob  370   1.048   2.391  11.030  0.0051 -0.0758  0.4895
    1Sil     Ob  371   0.804   2.389  10.236  0.4921  0.2916 -0.0799
    1Sil     Ob  372   1.362   2.289  10.708  0.1229 -0.6832 -0.3233
    1Sil     Ob  373   0.969   2.385  10.691 -0.1406 -0.0962 -0.4138
    1Sil     Ob  374   1.505   2.388  11.075 -0.5285  0.3733  0.3714
    1Sil     Ob  375   1.182   2.284  10.272 -0.1745 -0.1233  0.0758
    1Sil     Ob  376   1.436   2.220  10.220 -0.3335  0.5158  0.6198
    1Sil     Ob  377   0.855   2.215  11.010  0.2042  0.3501 -0.0572
    1Sil     Ob  378   1.131   2.209  10.613  0.0367 -0.2410 -0.5766
    1Sil     Ob  379   0.814   2.453  10.496  0.8072  0.1157  0.4506
    1Sil     Ob  380   1.348   2.466  10.888  0.2654  0.0102 -0.1769
    1Sil     Ob  381   1.027   2.142  12.288 -0.0361  0.7565 -0.1595
    1Sil     Ob  382   1.622   2.142  11.497  0.5424  0.5474  0.0031
    1Sil     Ob  383   1.264   2.041  11.829  0.5688  0.1497  0.5034
    1Sil     Ob  384   0.834   2.643  11.841  0.1177  0.2330 -0.4763
    1Sil     Ob  385   1.371   2.630  12.257  0.0198 -0.0597 -0.0145
    1Sil     Ob  386   1.209   2.529  11.473  0.3297  0.7970  0.0947
    1Sil     Ob  387   1.198   2.449  12.311 -0.8434 -0.7460  0.5395
    1Sil     Ob  388   0.970   2.458  11.523 -0.2126 -0.5049 -0.0775
    1Sil     Ob  389   1.503   2.462  11.925  0.5964 -0.3468  0.4672
    1Sil     Ob  390   0.995   2.232  12.043 -0.1323 -0.0821 -0.3646
    1Sil     Ob  391   1.581   2.208  11.254 -0.8746  0.4510  0.3909
    1Sil     Ob  392   1.289   2.213  11.643 -0.0550 -0.1373 -0.0387
    1Sil     Ob  393   0.961   2.384  12.245 -0.2257 -0.0388  0.1834
    1Sil     Ob  394   0.737   2.391  11.427  0.2369  0.2192 -0.1617
    1Sil     Ob  395   1.313   2.278  11.889 -0.0901  0.1594 -0.0744
    1Sil     Ob  396   0.907   2.401  11.877 -0.2243  0.7571 -0.2514
    1Sil     Ob  397   1.447   2.376  12.257  0.1394 -0.2274 -0.4565
    1Sil     Ob  398   1.145   2.273  11.453  0.3800  0.3484  0.1494
    1Sil     Ob  399   1.389   2.204  11.406  0.6375  0.2857  0.1669
    1Sil     Ob  400   0.794   2.186  12.208  0.1146  0.3481  0.0568
    1Sil     Ob  401   1.080   2.221  11.794  0.0542 -0.2266 -0.5902
    1Sil     Ob  402   0.761   2.467  11.678  0.4321  0.5243  0.1953
    1Sil     Ob  403   1.292   2.464  12.070  0.9597  0.1023 -0.2283
    1Sil     Ob  404   1.051   2.454  11.282  0.3396 -0.6166  0.0906
    1Sil     Ob  405   1.083   2.642  11.094  0.0102  0.2186 -0.1994
    1Sil     Ob  406   1.655   2.649  10.295 -0.7736  0.4147  0.2629
    1Sil     Ob  407   1.316   2.529  10.636 -0.1319 -0.5367  0.0398
    1Sil     Ob  408   0.889   3.118  10.676  0.0025 -0.9351 -0.0265
    1Sil     Ob  409   1.424   3.134  11.045 -0.1039 -0.3731 -0.6881
    1Sil     Ob  410   1.266   3.040  10.272 -0.8040 -0.6008  0.0141
    1Sil     Ob  411   1.254   2.951  11.115  0.1852  0.5561  0.2256
    1Sil     Ob  412   1.014   2.976  10.331 -1.0675  0.2293 -0.2443
    1Sil     Ob  413   1.553   2.954  10.729 -0.2926  0.3430 -0.0269
    1Sil     Ob  414   1.043   2.707  10.849  0.3074  0.2654 -0.2753
    1Sil     Ob  415   1.328   2.704  10.447 -0.5333  0.0573  0.1245
    1Sil     Ob  416   1.024   2.882  11.033  0.2475  0.2860  0.4319
    1Sil     Ob  417   0.801   2.879  10.229 -0.0380  0.1759  0.2348
    1Sil     Ob  418   1.357   2.779  10.697  0.2345 -0.8807  0.5565
    1Sil     Ob  419   0.970   2.877  10.671 -0.0700  0.3303  0.2369
    1Sil     Ob  420   1.505   2.889  11.065 -0.1899 -0.1025 -0.0328
    1Sil     Ob  421   1.189   2.791  10.248 -0.4266 -0.4120  0.4811
    1Sil     Ob  422   1.430   2.717  10.201  0.4000 -0.1294 -0.0706
    1Sil     Ob  423   0.846   2.697  11.008  0.0757  0.4212  0.7257
    1Sil     Ob  424   1.124   2.691  10.601 -0.0263  0.3885  0.5060
    1Sil     Ob  425   0.814   2.958  10.482  0.4189  0.5883 -0.0700
    1Sil     Ob  426   1.344   2.971  10.876  0.0313  0.8412 -0.2543
    1Sil     Ob  427   1.028   2.642  12.279 -0.1688  0.4799  0.3438
    1Sil     Ob  428   1.622   2.646  11.478 -0.3179 -0.1916 -0.0250
    1Sil     Ob  429   1.275   2.529  11.816 -1.0283 -0.0542 -0.2085
    1Sil     Ob  430   0.850   3.146  11.826  0.1242  0.1750  0.1740
    1Sil     Ob  431   1.380   3.117  12.240 -0.1210 -0.3663  1.0515
    1Sil     Ob  432   1.196   3.014  11.471  0.1294 -0.1813  0.5967
    1Sil     Ob  433   1.204   2.954  12.318  0.3034  0.2343 -0.2625
    1Sil     Ob  434   0.965   2.940  11.526  0.3620 -0.4661  0.4457
    1Sil     Ob  435   1.494   2.969  11.918  0.7427 -0.0008  0.3577
    1Sil     Ob  436   0.994   2.714  12.038  0.3836 -0.3476 -0.2410
    1Sil     Ob  437   1.582   2.724  11.242  0.2919 -0.1161 -0.1568
    1Sil     Ob  438   1.287   2.709  11.631 -0.2889  0.1851  0.3050
    1Sil     Ob  439   0.968   2.884  12.240 -0.9404 -0.5429 -0.1126
    1Sil     Ob  440   0.736   2.888  11.436  0.1640 -0.2335  0.1355
    1Sil     Ob  441   1.321   2.779  11.875 -0.1673  0.2465  0.2363
    1Sil     Ob  442   0.914   2.893  11.868  0.4212 -0.2170  0.5704
    1Sil     Ob  443   1.444   2.868  12.271  0.3937 -0.1736  0.3134
    1Sil     Ob  444   1.142   2.772  11.438  0.1361  1.0784  0.6319
    1Sil     Ob  445   1.381   2.688  11.396  0.1922  0.2059  0.5860
    1Sil     Ob  446   0.796   2.701  12.198  0.2665 -0.1883  0.2131
    1Sil     Ob  447   1.082   2.713  11.788  0.2397  0.1430 -0.3857
    1Sil     Ob  448   0.767   2.955  11.676 -0.1898  0.5626  0.1975
    1Sil     Ob  449   1.292   2.935  12.073 -0.3261  0.0030  0.0765
    1Sil     Ob  450   1.052   2.945  11.278 -0.5790 -0.7150  0.6020
    1Sil     Ob  451   1.070   3.131  11.099 -0.2357  0.2544 -0.5588
    1Sil     Ob  452   1.674   3.134  10.275  0.2568  0.3335  0.5492
    1Sil     Ob  453   1.339   3.027  10.621 -0.2038  0.0060  0.0831
    1Sil     Ob  454   0.889   3.609  10.658 -1.1873  0.1961 -0.4770
    1Sil     Ob  455   1.425   3.621  11.051 -0.2431  0.0554 -0.5182
    1Sil     Ob  456   1.252   3.529  10.294 -0.2917 -0.2677 -0.0843
    1Sil     Ob  457   1.257   3.449  11.129 -0.1070 -0.0064 -0.2310
    1Sil     Ob  458   1.006   3.445  10.340 -1.0921  0.6390 -0.2333
    1Sil     Ob  459   1.545   3.445  10.718  0.0474  0.7462 -0.1186
    1Sil     Ob  460   1.050   3.207  10.855  0.7664 -0.0959  0.3612
    1Sil     Ob  461   1.342   3.217  10.450 -0.5251 -0.4292 -0.0278
    1Sil     Ob  462   1.017   3.386  11.040 -0.0099 -0.0781 -0.4363
    1Sil     Ob  463   0.777   3.386  10.232  0.2960 -0.5317  0.4446
    1Sil     Ob  464   1.358   3.269  10.692  0.2794  0.7334  0.5970
    1Sil     Ob  465   0.961   3.367  10.659 -0.0762 -0.4015 -0.9113
    1Sil     Ob  466   1.493   3.381  11.073  0.6700  0.9994 -0.0809
    1Sil     Ob  467   1.189   3.286  10.254 -0.1563 -0.3911  0.0043
    1Sil     Ob  468   1.429   3.213  10.207 -0.6933  0.5887 -0.0644
    1Sil     Ob  469   0.841   3.209  11.004 -0.2765 -0.4601 -0.0006
    1Sil     Ob  470   1.132   3.177  10.601 -0.2335  0.5996 -0.0059
    1Sil     Ob  471   0.806   3.456  10.482 -0.3046 -0.5549 -0.1171
    1Sil     Ob  472   1.341   3.456  10.878  0.3023 -0.3552  0.6965
    1Sil     Ob  473   1.015   3.121  12.303  0.1170 -0.1642  0.0453
    1Sil     Ob  474   1.600   3.132  11.487 -0.1104  0.3030 -0.0598
    1Sil     Ob  475   1.263   3.019  11.816 -0.0436  0.0673 -0.0625
    1Sil     Ob  476   0.842   3.619  11.868  0.6322  0.6037 -0.4939
    1Sil     Ob  477   1.375   3.626  12.247 -0.0463  0.3525  0.0001
    1Sil     Ob  478   1.202   3.514  11.484  0.6600 -0.4623  0.6919
    1Sil     Ob  479   1.215   3.439  12.316 -0.3956 -0.4493 -0.0902
    1Sil     Ob  480   0.961   3.452  11.519  0.2258  0.1805  0.3957
    1Sil     Ob  481   1.506   3.437  11.921 -0.4086  0.8377  0.1384
    1Sil     Ob  482   0.993   3.182  12.043 -0.1304  0.1831  0.4278
    1Sil     Ob  483   1.572   3.212  11.247 -0.0323  0.0556 -0.4594
    1Sil     Ob  484   1.270   3.197  11.635  0.4374 -0.3258 -0.2633
    1Sil     Ob  485   1.002   3.370  12.214 -0.0955 -0.3952  0.4839
    1Sil     Ob  486   0.725   3.369  11.438  0.2764  0.6113  0.0737
    1Sil     Ob  487   1.318   3.265  11.878  0.5927 -0.1712  0.2981
    1Sil     Ob  488   0.919   3.375  11.876  0.3839 -0.2899  0.2969
    1Sil     Ob  489   1.454   3.374  12.284 -0.0173 -0.1066  0.5618
    1Sil     Ob  490   1.119   3.263  11.442 -0.5947 -0.1886 -1.0341
    1Sil     Ob  491   1.365   3.199  11.399 -0.7050 -0.1864  0.1146
    1Sil     Ob  492   0.800   3.202  12.198 -0.0907 -0.1699  0.0543
    1Sil     Ob  493   1.088   3.206  11.795 -0.1948 -0.9767  0.3857
    1Sil     Ob  494   0.758   3.457  11.681  0.6179 -0.1059  0.2827
    1Sil     Ob  495   1.300   3.437  12.084  0.3142  0.7851 -0.7310
    1Sil     Ob  496   1.047   3.452  11.278 -0.2401 -0.1584  0.1507
    1Sil     Ob  497   1.070   3.635  11.099 -0.1478  0.1061 -0.4587
    1Sil     Ob  498   1.658   3.630  10.306 -0.2486 -0.2324  0.6870
    1Sil     Ob  499   1.323   3.516  10.620 -0.5192 -0.1909  0.4536
    1Sil     Ob  500   0.894   4.114  10.656 -0.0831  0.0882 -0.4094
    1Sil     Ob  501   1.421   4.125  11.061 -0.0836  0.3290 -0.3764
    1Sil     Ob  502   1.255   4.021  10.296  0.2301 -0.1903 -0.0049
    1Sil     Ob  503   1.254   3.940  11.129  0.2687  0.4770  0.3303
    1Sil     Ob  504   1.004   3.953  10.334 -0.3963 -0.4668  0.4295
    1Sil     Ob  505   1.554   3.937  10.728 -0.2202 -0.1776 -0.0912
    1Sil     Ob  506   1.038   3.694  10.853  0.1654 -0.1543  0.6222
    1Sil     Ob  507   1.334   3.708  10.454  0.2481  0.1946 -0.0212
    1Sil     Ob  508   1.027   3.880  11.026  0.1247 -0.0840  0.0711
    1Sil     Ob  509   0.769   3.873  10.253  0.4325 -0.4507 -0.3966
    1Sil     Ob  510   1.359   3.762  10.705 -0.2276 -0.4121 -0.0155
    1Sil     Ob  511   0.962   3.865  10.683  0.5031  0.4113  0.4605
    1Sil     Ob  512   1.494   3.869  11.076 -0.2397 -0.3623  0.3689
    1Sil     Ob  513   1.181   3.775  10.252  1.0301  0.5623  0.2273
    1Sil     Ob  514   1.429   3.692  10.205  0.3423 -0.0369 -0.0977
    1Sil     Ob  515   0.836   3.695  11.010 -0.6431  0.7619  0.0368
    1Sil     Ob  516   1.122   3.686  10.603  0.7866 -0.2042  0.4953
    1Sil     Ob  517   0.808   3.950  10.498  0.4496 -0.7471 -0.1442
    1Sil     Ob  518   1.344   3.953  10.886 -0.3841  0.1427  0.6771
    1Sil     Ob  519   1.026   3.625  12.297  0.4553  0.1356  0.1156
    1Sil     Ob  520   1.616   3.631  11.496 -0.4543 -0.6891 -0.0383
    1Sil     Ob  521   1.283   3.515  11.829  0.6016  0.0663 -0.0354
    1Sil     Ob  522   0.831   4.107  11.863 -0.1370 -0.2750  0.2321
    1Sil     Ob  523   1.387   4.113  12.232  0.3761  0.0672 -0.2111
    1Sil     Ob  524   1.205   4.008  11.468  0.5730  0.0970  0.1665
    1Sil     Ob  525   1.214   3.940  12.319 -0.0472 -0.5317  0.7440
    1Sil     Ob  526   0.958   3.950  11.523 -0.0011  0.5030 -0.4181
    1Sil     Ob  527   1.499   3.923  11.935 -0.1259 -0.6265 -0.4789
    1Sil     Ob  528   0.998   3.693  12.054  0.4596 -0.0650 -0.1926
    1Sil     Ob  529   1.577   3.696  11.247 -0.3529 -0.5450  0.2184
    1Sil     Ob  530   1.288   3.698  11.654 -0.1636  0.1220  0.0144
    1Sil     Ob  531   0.965   3.875  12.250 -0.6197  0.1212 -0.2285
    1Sil     Ob  532   0.728   3.867  11.434  0.2910  0.3583  0.2348
    1Sil     Ob  533   1.309   3.757  11.897  0.3960  1.1627 -0.4732
    1Sil     Ob  534   0.918   3.860  11.885 -0.6470 -0.2394  0.7993
    1Sil     Ob  535   1.459   3.870  12.271 -0.5369 -0.6382 -0.2465
    1Sil     Ob  536   1.132   3.766  11.459  0.7138  0.2479  0.0145
    1Sil     Ob  537   1.372   3.707  11.406  0.1834  0.3410  0.6508
    1Sil     Ob  538   0.789   3.695  12.211  0.1786 -0.3835 -0.8314
    1Sil     Ob  539   1.084   3.671  11.808  0.3979 -0.0397 -0.2025
    1Sil     Ob  540   0.762   3.929  11.682 -0.0092  0.2770 -0.3016
    1Sil     Ob  541   1.291   3.934  12.073  0.1778 -0.1719  0.3384
    1Sil     Ob  542   1.046   3.929  11.282 -0.3069  0.0087  0.1942
    1Sil     Ob  543   1.068   4.122  11.103  0.6345 -0.0763 -0.6734
    1Sil     Ob  544   1.642   4.122  10.308 -0.6891  0.0581  0.4614
    1Sil     Ob  545   1.335   4.010  10.625  0.1934  0.1355  0.4622
    1Sil     Ob  546   0.896   4.610  10.675 -0.0556 -0.2917 -0.3248
    1Sil     Ob  547   1.428   4.621  11.067 -0.1125  0.4833  0.1709
    1Sil     Ob  548   1.252   4.507  10.286  0.3834  0.2378 -0.3776
    1Sil     Ob  549   1.256   4.439  11.128  0.0059  0.1711 -0.0499
    1Sil     Ob  550   1.011   4.433  10.343  0.2224 -0.6476  0.5545
    1Sil     Ob  551   1.541   4.431  10.743 -0.4074 -0.6553  0.1892
    1Sil     Ob  552   1.039   4.177  10.855 -0.2893  0.5666 -0.0043
    1Sil     Ob  553   1.333   4.197  10.464 -0.5751 -0.5699  0.3928
    1Sil     Ob  554   1.038   4.355  11.024  0.0636 -0.0611  0.0335
    1Sil     Ob  555   0.769   4.369  10.254 -0.4919  0.4680  0.7820
    1Sil     Ob  556   1.356   4.259  10.714  0.1546  0.3910  0.0557
    1Sil     Ob  557   0.962   4.358  10.685 -0.0936  0.3196 -0.5266
    1Sil     Ob  558   1.504   4.368  11.084  0.3999 -0.3907 -0.0649
    1Sil     Ob  559   1.181   4.261  10.260 -0.6296 -0.0419 -0.3770
    1Sil     Ob  560   1.416   4.204  10.219 -0.6446 -0.7173 -0.3085
    1Sil     Ob  561   0.843   4.187  11.014  0.0607 -1.2559 -0.4700
    1Sil     Ob  562   1.140   4.172  10.607 -0.1215 -0.0557 -0.5591
    1Sil     Ob  563   0.807   4.445  10.508  0.2096 -0.4244  0.2574
    1Sil     Ob  564   1.339   4.456  10.894 -0.7695 -0.4803 -0.2376
    1Sil     Ob  565   1.026   4.126  12.294 -0.7495 -0.5065 -0.2362
    1Sil     Ob  566   1.600   4.117  11.502 -0.1321 -0.0947 -0.4608
    1Sil     Ob  567   1.272   3.995  11.827 -0.1569  0.6862 -0.0837
    1Sil     Ob  568   0.836   4.595  11.866 -0.7747 -0.1101 -0.5602
    1Sil     Ob  569   1.372   4.601  12.245  0.1877  0.1185  0.3400
    1Sil     Ob  570   1.209   4.490  11.469 -0.2163  0.0233 -0.5851
    1Sil     Ob  571   1.209   4.428  12.324 -0.1200 -0.8077  0.0311
    1Sil     Ob  572   0.959   4.426  11.528  0.1174  0.4274  0.2478
    1Sil     Ob  573   1.506   4.422  11.920 -0.0310 -0.7150 -0.2063
    1Sil     Ob  574   0.986   4.195  12.063 -0.2281  0.1764 -0.1356
    1Sil     Ob  575   1.584   4.192  11.254  0.5827  0.0213  0.3407
    1Sil     Ob  576   1.275   4.183  11.647  0.1351  0.5416 -0.4261
    1Sil     Ob  577   0.957   4.365  12.264 -0.2977 -0.0632  0.6228
    1Sil     Ob  578   0.725   4.358  11.442 -0.0756  0.2845  0.1505
    1Sil     Ob  579   1.317   4.239  11.895  0.6775  0.1296 -0.4176
    1Sil     Ob  580   0.906   4.354  11.876 -0.3251 -0.3252 -0.5242
    1Sil     Ob  581   1.446   4.364  12.270  0.7558  0.2444 -0.0170
    1Sil     Ob  582   1.121   4.244  11.453  0.2666  0.0854  0.3132
    1Sil     Ob  583   1.372   4.190  11.404  0.0470 -0.1937 -0.2965
    1Sil     Ob  584   0.788   4.187  12.218  0.4271 -0.5402  0.6751
    1Sil     Ob  585   1.076   4.166  11.813 -0.0030  0.4231  0.4775
    1Sil     Ob  586   0.751   4.431  11.677 -0.3880 -0.4619 -0.4837
    1Sil     Ob  587   1.295   4.423  12.073  0.2463  0.0533 -0.5297
    1Sil     Ob  588   1.048   4.423  11.281 -0.5545  0.0574  0.1278
    1Sil     Ob  589   1.062   4.603  11.102  0.2861 -0.1828  0.3075
    1Sil     Ob  590   1.645   4.611  10.319  0.7370 -0.7465 -0.7281
    1Sil     Ob  591   1.333   4.507  10.643  0.5036 -0.0955 -0.8541
    1Sil     Ob  592   1.256   1.494  11.124  0.0116  0.2571  1.0609
    1Sil     Ob  593   1.005   1.478  10.329 -0.1420 -0.2967 -0.7251
    1Sil     Ob  594   1.559   1.486  10.741 -0.1208  0.4902 -0.5511
    1Sil     Ob  595   1.056   4.678  10.851  0.1439 -0.0408  0.2119
    1Sil     Ob  596   1.343   4.683  10.455 -0.0339  0.2846 -0.2055
    1Sil     Ob  597   1.026   4.855  11.033  0.4472  0.0747  0.2619
    1Sil     Ob  598   0.770   4.859  10.253  0.1264  0.1326  0.3364
    1Sil     Ob  599   1.378   4.748  10.705 -0.2027  0.5270 -0.0755
    1Sil     Ob  600   0.969   1.403  10.694 -0.2467 -0.5208 -0.8204
    1Sil     Ob  601   1.500   1.427  11.077 -0.3496 -0.0085 -0.0902
    1Sil     Ob  602   1.174   1.312  10.262  0.0030 -0.4512 -0.1206
    1Sil     Ob  603   1.427   4.691  10.209 -0.3449  0.0252 -0.2812
    1Sil     Ob  604   0.840   4.677  10.994  0.0224 -0.8039 -0.0804
    1Sil     Ob  605   1.146   4.675  10.606  0.2124 -0.4291  0.3654
    1Sil     Ob  606   0.808   1.463  10.498 -0.5286  0.1061  0.7392
    1Sil     Ob  607   1.349   1.476  10.885  0.7755  0.0803  0.1184
    1Sil     Ob  608   1.025   4.607  12.307 -0.1762  0.3980 -0.0696
    1Sil     Ob  609   1.612   4.599  11.500  0.3535  0.0127 -0.3501
    1Sil     Ob  610   1.269   4.487  11.829  0.7265  0.0432  0.6092
    1Sil     Ob  611   1.195   1.476  12.321  0.0879  0.6875 -0.4987
    1Sil     Ob  612   0.970   1.463  11.529  0.0290 -0.2253 -0.6052
    1Sil     Ob  613   1.491   1.471  11.929  0.2034  0.4170 -0.0416
    1Sil     Ob  614   1.000   4.672  12.053 -0.0123 -0.1669  0.2831
    1Sil     Ob  615   1.586   4.685  11.249  0.4994 -0.0003 -0.5826
    1Sil     Ob  616   1.285   4.669  11.642  0.0784  0.5274 -0.3381
    1Sil     Ob  617   0.961   4.851  12.233  0.1922 -0.1032 -0.3030
    1Sil     Ob  618   0.749   4.857  11.422 -0.1951  0.7106  0.0689
    1Sil     Ob  619   1.310   4.734  11.892 -0.4798 -0.0250 -0.4592
    1Sil     Ob  620   0.925   1.390  11.864  0.0064  0.0383  0.8358
    1Sil     Ob  621   1.435   1.389  12.281 -0.1102 -0.0756 -0.0098
    1Sil     Ob  622   1.138   1.293  11.446  0.7943  0.2554 -0.3760
    1Sil     Ob  623   1.386   4.671  11.400 -0.4422 -0.0649  0.0966
    1Sil     Ob  624   0.791   4.668  12.210  0.1336  0.5090 -0.1874
    1Sil     Ob  625   1.077   4.647  11.804  0.4352  0.0802  0.7005
    1Sil     Ob  626   0.770   1.471  11.678  0.0401 -0.2923  0.0666
    1Sil     Ob  627   1.277   1.459  12.075  0.0194 -0.3967 -0.5842
    1Sil     Ob  628   1.052   1.465  11.280  0.4604 -0.1366 -0.2977
    1Sil     Ob  629   1.906   1.656  11.105  0.2204  0.4226 -0.2260
    1Sil     Ob  630   2.492   1.663  10.304 -0.5053 -0.2347 -0.2349
    1Sil     Ob  631   1.719   2.150  10.672  0.0186  0.1822 -0.1605
    1Sil     Ob  632   2.262   2.142  11.043  0.3288  0.3799 -0.4697
    1Sil     Ob  633   2.086   2.027  10.272 -0.1734 -0.6003  0.2436
    1Sil     Ob  634   2.086   1.975  11.126  0.5494 -0.0829  0.1580
    1Sil     Ob  635   1.842   1.979  10.344 -0.6222  0.2507  0.3244
    1Sil     Ob  636   2.389   1.972  10.741  0.0704 -0.1614 -0.2815
    1Sil     Ob  637   1.884   1.730  10.859  0.4999  0.3604 -0.5051
    1Sil     Ob  638   2.182   1.701  10.462  0.0720 -0.5561  0.2518
    1Sil     Ob  639   1.857   1.912  11.044 -0.5331  0.9117  0.0283
    1Sil     Ob  640   1.598   1.906  10.265  0.0394 -0.0958  0.2509
    1Sil     Ob  641   2.217   1.788  10.703 -0.1689 -0.0777 -0.2004
    1Sil     Ob  642   1.802   1.907  10.682  0.2959  0.3051  0.2914
    1Sil     Ob  643   2.332   1.893  11.096  0.0231  0.1598 -0.4190
    1Sil     Ob  644   2.008   1.789  10.295  0.4278  0.8259  0.4099
    1Sil     Ob  645   2.255   1.736  10.225  0.2591  0.6123 -0.2598
    1Sil     Ob  646   1.671   1.733  11.005 -0.5412 -0.3054 -0.8493
    1Sil     Ob  647   1.977   1.731  10.614 -0.0086  0.1674  0.2419
    1Sil     Ob  648   1.641   1.995  10.503  0.5162  0.2108  0.1736
    1Sil     Ob  649   2.181   1.954  10.895  0.3917  0.0459  0.6891
    1Sil     Ob  650   1.853   1.639  12.286  0.4606 -1.0617  0.8632
    1Sil     Ob  651   2.444   1.650  11.503  0.0426  0.3995 -0.3018
    1Sil     Ob  652   1.669   2.150  11.863 -0.5407 -0.4908 -0.3192
    1Sil     Ob  653   2.203   2.139  12.255  0.0974  0.3639 -0.3285
    1Sil     Ob  654   2.032   2.039  11.482 -0.6313  0.2332  0.4783
    1Sil     Ob  655   2.022   1.963  12.317 -1.1900 -0.3938  0.4410
    1Sil     Ob  656   1.792   1.975  11.530  0.4426 -0.0876  0.3837
    1Sil     Ob  657   2.322   1.964  11.926  0.0204 -0.5254 -0.2978
    1Sil     Ob  658   1.824   1.723  12.040 -0.0082  0.4479  0.0792
    1Sil     Ob  659   2.412   1.712  11.252 -0.7476  0.4185 -0.6461
    1Sil     Ob  660   2.111   1.734  11.641 -0.3345 -0.3954 -0.5096
    1Sil     Ob  661   1.788   1.883  12.234 -0.0146 -0.2952  0.1269
    1Sil     Ob  662   1.559   1.905  11.433 -0.8233  0.3881 -0.0888
    1Sil     Ob  663   2.136   1.795  11.893 -0.0045  0.1206  0.5227
    1Sil     Ob  664   1.745   1.898  11.880 -0.1522  0.1178  0.0942
    1Sil     Ob  665   2.268   1.901  12.280 -0.1595  0.1950 -0.2167
    1Sil     Ob  666   1.965   1.797  11.431 -0.5563  0.2248 -0.7330
    1Sil     Ob  667   2.210   1.713  11.406  0.2972 -0.3790  0.0727
    1Sil     Ob  668   1.617   1.698  12.212  0.1517  0.5290  0.6642
    1Sil     Ob  669   1.914   1.714  11.801  0.3772  0.1959  0.1624
    1Sil     Ob  670   1.587   1.972  11.680  0.2794  0.3343 -0.7720
    1Sil     Ob  671   2.115   1.967  12.080 -0.1976  0.5216 -0.1204
    1Sil     Ob  672   1.882   2.000  11.289  0.3503  0.2449  0.8042
    1Sil     Ob  673   1.912   2.155  11.088  0.2821  0.5438 -0.6411
    1Sil     Ob  674   2.476   2.152  10.312 -0.3136  0.2954  0.1114
    1Sil     Ob  675   2.159   2.039  10.653 -0.3892 -0.4972  0.2381
    1Sil     Ob  676   1.717   2.641  10.660 -0.4531 -0.1890  0.3891
    1Sil     Ob  677   2.257   2.652  11.045 -0.2087  0.2638  0.2032
    1Sil     Ob  678   2.083   2.527  10.264 -0.3234  0.8604 -0.4349
    1Sil     Ob  679   2.081   2.463  11.108 -0.3424 -0.3038 -0.0968
    1Sil     Ob  680   1.833   2.477  10.323 -0.9747 -0.4637  0.5598
    1Sil     Ob  681   2.380   2.462  10.720  0.0836 -0.0893 -0.1532
    1Sil     Ob  682   1.868   2.232  10.854 -0.0289 -0.1073  0.5369
    1Sil     Ob  683   2.170   2.206  10.454 -0.0732 -0.0524  0.4609
    1Sil     Ob  684   1.847   2.396  11.031 -0.2431 -0.9296  0.0378
    1Sil     Ob  685   1.603   2.392  10.239  0.5629  0.0820 -0.5810
    1Sil     Ob  686   2.204   2.292  10.692  0.2217 -0.6141  0.4111
    1Sil     Ob  687   1.800   2.394  10.659  0.5410 -0.5249 -0.2550
    1Sil     Ob  688   2.323   2.393  11.075 -0.2653 -0.2820 -0.6145
    1Sil     Ob  689   2.004   2.276  10.270  0.3206 -0.2000 -0.1117
    1Sil     Ob  690   2.241   2.218  10.213  0.1445 -0.2036  0.0363
    1Sil     Ob  691   1.678   2.210  11.015 -0.1097  0.1256  0.0937
    1Sil     Ob  692   1.972   2.212  10.614  0.4873 -0.7834 -0.3743
    1Sil     Ob  693   1.637   2.480  10.484 -0.2005 -0.1985 -0.3626
    1Sil     Ob  694   2.173   2.461  10.878 -0.5018 -0.4141 -0.4361
    1Sil     Ob  695   1.852   2.135  12.283  0.0945 -0.4512 -0.6228
    1Sil     Ob  696   2.435   2.144  11.498 -0.1023  0.3486  0.1164
    1Sil     Ob  697   2.090   2.030  11.832  0.7730 -0.4587  0.4931
    1Sil     Ob  698   1.669   2.640  11.863  0.1657 -0.4938 -0.2840
    1Sil     Ob  699   2.202   2.633  12.259 -0.1395  0.3906 -0.3080
    1Sil     Ob  700   2.042   2.527  11.471 -0.5109 -0.6891  0.2059
    1Sil     Ob  701   2.036   2.453  12.325  0.2195  0.2921 -0.2055
    1Sil     Ob  702   1.803   2.465  11.532  0.1154  0.3963  0.2927
    1Sil     Ob  703   2.323   2.455  11.937  0.3950 -0.1321 -0.0200
    1Sil     Ob  704   1.822   2.243  12.054  0.5798  0.0963 -0.0170
    1Sil     Ob  705   2.404   2.225  11.246 -0.2599 -0.3603  0.0478
    1Sil     Ob  706   2.104   2.217  11.648  0.8667  0.6670  0.6614
    1Sil     Ob  707   1.790   2.380  12.267 -0.0349 -0.0826  0.0383
    1Sil     Ob  708   1.573   2.384  11.435  0.1429  0.1204 -0.2365
    1Sil     Ob  709   2.142   2.275  11.895 -0.0083  0.1270  0.0015
    1Sil     Ob  710   1.742   2.399  11.862 -0.1661  0.2980  0.2899
    1Sil     Ob  711   2.282   2.388  12.266 -0.5783  0.3068  0.2222
    1Sil     Ob  712   1.970   2.285  11.445 -0.0161 -0.2787 -0.2291
    1Sil     Ob  713   2.203   2.214  11.409 -0.0650 -0.0553 -0.5664
    1Sil     Ob  714   1.620   2.191  12.222 -0.4192  0.2230  0.3633
    1Sil     Ob  715   1.900   2.215  11.811  0.1418  0.0609  0.5286
    1Sil     Ob  716   1.590   2.482  11.679  0.0917 -0.0406 -0.4134
    1Sil     Ob  717   2.122   2.451  12.085 -0.6893  0.0618 -0.2629
    1Sil     Ob  718   1.888   2.474  11.279 -0.4896  0.5244 -0.0747
    1Sil     Ob  719   1.913   2.643  11.081 -0.2100 -0.0400 -0.0159
    1Sil     Ob  720   2.482   2.631  10.293  0.2369 -0.2726 -0.0214
    1Sil     Ob  721   2.149   2.534  10.628  0.0377 -0.1174  0.3362
    1Sil     Ob  722   1.715   3.133  10.662  0.0758 -0.2484  0.3283
    1Sil     Ob  723   2.254   3.126  11.048  0.9953 -0.4312 -0.0758
    1Sil     Ob  724   2.075   3.024  10.279  0.5936  0.8582  0.0275
    1Sil     Ob  725   2.086   2.951  11.130 -0.4563 -0.3059 -0.1017
    1Sil     Ob  726   1.837   2.944  10.337 -0.2164 -0.3513 -0.5220
    1Sil     Ob  727   2.374   2.945  10.741  0.1397  0.1291  0.4971
    1Sil     Ob  728   1.879   2.716  10.835 -0.0983  0.6248 -0.0210
    1Sil     Ob  729   2.158   2.704  10.444  0.8932  0.1754  0.0416
    1Sil     Ob  730   1.856   2.886  11.026 -0.9728 -0.4585 -0.2677
    1Sil     Ob  731   1.608   2.893  10.246 -0.2946 -0.1295  1.0052
    1Sil     Ob  732   2.196   2.768  10.687 -0.0910 -0.0779  0.0010
    1Sil     Ob  733   1.792   2.884  10.659 -0.0550 -0.0662 -0.2954
    1Sil     Ob  734   2.328   2.890  11.080  0.3158 -0.2026  0.3785
    1Sil     Ob  735   2.010   2.780  10.250  1.0366 -0.3475 -0.2119
    1Sil     Ob  736   2.246   2.712  10.204  0.1265 -0.0543 -0.4770
    1Sil     Ob  737   1.676   2.712  11.011 -0.2091 -0.1744 -0.4463
    1Sil     Ob  738   1.961   2.702  10.597  0.7717 -0.5981 -0.2534
    1Sil     Ob  739   1.625   2.975  10.491  0.3749 -0.1623 -0.3276
    1Sil     Ob  740   2.164   2.931  10.889 -0.2730  0.8210 -0.2324
    1Sil     Ob  741   1.859   2.632  12.292 -0.4242  0.0324 -0.3390
    1Sil     Ob  742   2.432   2.639  11.491  0.5595  0.2638  0.0415
    1Sil     Ob  743   2.090   2.527  11.843  0.6189 -0.0092  0.2365
    1Sil     Ob  744   1.678   3.131  11.833 -0.0110  0.4291 -0.1963
    1Sil     Ob  745   2.208   3.121  12.240 -0.6004  0.6318 -0.0766
    1Sil     Ob  746   2.025   3.015  11.482  0.6293  0.1170 -0.0925
    1Sil     Ob  747   2.033   2.956  12.313  0.2943  0.3826  0.0847
    1Sil     Ob  748   1.782   2.938  11.523  0.3755 -0.1070  0.0575
    1Sil     Ob  749   2.334   2.960  11.924  0.0466 -0.4427  0.0754
    1Sil     Ob  750   1.823   2.709  12.046  0.2932 -0.2317 -0.1082
    1Sil     Ob  751   2.415   2.722  11.245  0.0556 -0.3105  0.0595
    1Sil     Ob  752   2.113   2.702  11.640 -0.4122 -0.1319 -0.5840
    1Sil     Ob  753   1.792   2.881  12.237 -0.1236  0.5475 -0.3252
    1Sil     Ob  754   1.539   2.884  11.436 -0.1188  0.1123  0.1196
    1Sil     Ob  755   2.158   2.771  11.887 -0.6844  0.3623 -0.0550
    1Sil     Ob  756   1.744   2.891  11.875  0.0831  0.0336  0.9167
    1Sil     Ob  757   2.272   2.883  12.269  0.3474  0.4222 -0.3323
    1Sil     Ob  758   1.963   2.769  11.443  0.4055 -0.2507  0.0035
    1Sil     Ob  759   2.197   2.714  11.395  0.4859  0.3560  0.2310
    1Sil     Ob  760   1.617   2.685  12.213 -0.0503  0.5937 -0.0609
    1Sil     Ob  761   1.911   2.708  11.804 -0.0079 -0.3622  0.5562
    1Sil     Ob  762   1.584   2.968  11.675 -0.8586  0.5174 -0.4670
    1Sil     Ob  763   2.121   2.940  12.069  0.5310 -0.1314 -0.3759
    1Sil     Ob  764   1.878   2.950  11.278 -0.5445 -1.3793 -0.3612
    1Sil     Ob  765   1.906   3.127  11.093  0.1004  0.2363 -0.0184
    1Sil     Ob  766   2.486   3.132  10.317  0.0751 -0.2713  0.1552
    1Sil     Ob  767   2.136   3.028  10.656  0.3367 -0.1480 -0.0684
    1Sil     Ob  768   1.716   3.632  10.657  0.1478  0.1240  0.5638
    1Sil     Ob  769   2.254   3.629  11.051 -0.2719 -0.1390  0.0424
    1Sil     Ob  770   2.102   3.513  10.283  0.1293  0.7113  0.4435
    1Sil     Ob  771   2.092   3.461  11.125  0.2338  0.0207 -0.3300
    1Sil     Ob  772   1.846   3.464  10.339 -0.6662 -0.6939  0.3972
    1Sil     Ob  773   2.385   3.453  10.727  0.3964 -0.2670  0.4801
    1Sil     Ob  774   1.870   3.206  10.849 -0.0161 -1.1972 -0.0067
    1Sil     Ob  775   2.166   3.185  10.456  0.4794  0.1180  0.1661
    1Sil     Ob  776   1.858   3.381  11.034  0.4634  0.2622 -0.0694
    1Sil     Ob  777   1.620   3.396  10.238  0.2655  0.3199  0.0696
    1Sil     Ob  778   2.210   3.273  10.704 -0.0407  0.6040  0.5968
    1Sil     Ob  779   1.789   3.384  10.679  0.0299 -0.1883  0.4546
    1Sil     Ob  780   2.325   3.380  11.074 -0.8044  0.4131  0.6386
    1Sil     Ob  781   2.006   3.271  10.276  0.0014  0.6311  0.1106
    1Sil     Ob  782   2.255   3.213  10.207 -0.5916  0.0689 -0.8203
    1Sil     Ob  783   1.670   3.205  11.018 -0.4357  0.0915  0.6062
    1Sil     Ob  784   1.961   3.199  10.619  0.4682  0.1348  0.9084
    1Sil     Ob  785   1.642   3.456  10.480  0.4965  0.3510 -0.2929
    1Sil     Ob  786   2.179   3.441  10.882 -0.1805  0.3083  0.2164
    1Sil     Ob  787   1.844   3.136  12.285  0.1435 -0.0530  0.1260
    1Sil     Ob  788   2.436   3.127  11.488  0.4256  0.2535 -0.4437
    1Sil     Ob  789   2.101   3.011  11.827 -0.1268  0.7866 -0.2447
    1Sil     Ob  790   1.669   3.623  11.845  0.3342  0.9718 -0.0310
    1Sil     Ob  791   2.210   3.605  12.243  0.0236  0.1305 -0.0730
    1Sil     Ob  792   2.043   3.509  11.480 -0.2670 -0.0273  0.0111
    1Sil     Ob  793   2.033   3.436  12.324  0.2141  0.4002 -0.2383
    1Sil     Ob  794   1.796   3.447  11.529 -0.2261 -0.3559 -0.1147
    1Sil     Ob  795   2.331   3.418  11.935 -0.8838  0.8166 -0.3075
    1Sil     Ob  796   1.824   3.197  12.030 -0.2515 -0.3442 -0.2141
    1Sil     Ob  797   2.403   3.208  11.245 -0.2425 -0.1541  0.1444
    1Sil     Ob  798   2.125   3.182  11.649 -0.2883  0.1853 -0.1283
    1Sil     Ob  799   1.811   3.384  12.216 -0.1416 -0.1030 -0.1502
    1Sil     Ob  800   1.559   3.380  11.435  0.3208 -0.5841  0.0810
    1Sil     Ob  801   2.153   3.252  11.888  0.2016  0.2855  0.5225
    1Sil     Ob  802   1.747   3.379  11.860 -0.1318  0.3517 -0.0865
    1Sil     Ob  803   2.274   3.361  12.291 -0.3958  0.6137 -0.8212
    1Sil     Ob  804   1.966   3.268  11.465 -0.6080  0.7082  0.2242
    1Sil     Ob  805   2.195   3.188  11.400 -0.0552  0.0272  0.2097
    1Sil     Ob  806   1.611   3.208  12.185  0.1573 -0.1154 -0.3881
    1Sil     Ob  807   1.915   3.195  11.791  0.3127 -0.1038  0.3416
    1Sil     Ob  808   1.587   3.451  11.677  0.0302  0.0400  0.8284
    1Sil     Ob  809   2.126   3.422  12.086  0.6641  0.0653  0.0072
    1Sil     Ob  810   1.889   3.434  11.289 -0.3784 -0.6377 -0.6366
    1Sil     Ob  811   1.883   3.623  11.107  0.3779 -0.1559 -0.1609
    1Sil     Ob  812   2.492   3.626  10.295  0.7218 -0.1895  0.3976
    1Sil     Ob  813   2.149   3.514  10.640 -0.3540 -0.2256  0.3339
    1Sil     Ob  814   1.720   4.113  10.648  0.0516  0.0420  0.0989
    1Sil     Ob  815   2.245   4.117  11.063 -0.2009  0.8053 -0.1689
    1Sil     Ob  816   2.084   4.012  10.263 -0.2507  0.1584 -0.5941
    1Sil     Ob  817   2.071   3.934  11.137  0.3387 -0.0155 -0.4645
    1Sil     Ob  818   1.844   3.956  10.321 -0.3390 -0.6476  0.2217
    1Sil     Ob  819   2.376   3.934  10.738 -0.1814 -0.6283 -0.1175
    1Sil     Ob  820   1.868   3.695  10.856  0.1458 -0.0208 -0.0757
    1Sil     Ob  821   2.163   3.699  10.448  0.7640 -0.4377  0.2800
    1Sil     Ob  822   1.852   3.864  11.036  0.8401 -0.0641  0.0586
    1Sil     Ob  823   1.602   3.880  10.240 -0.3033 -0.3526  0.1206
    1Sil     Ob  824   2.188   3.759  10.712 -0.3251 -0.1260  0.5030
    1Sil     Ob  825   1.800   3.870  10.673  0.3278  0.3091  0.1685
    1Sil     Ob  826   2.318   3.875  11.084 -0.4961  0.2300  0.2504
    1Sil     Ob  827   2.014   3.762  10.257 -0.0775  0.4165  0.1370
    1Sil     Ob  828   2.262   3.704  10.203 -0.4002  0.0206 -0.3984
    1Sil     Ob  829   1.666   3.690  11.006  0.8060 -0.1589 -0.1978
    1Sil     Ob  830   1.963   3.678  10.618  0.0113 -0.1487 -0.5379
    1Sil     Ob  831   1.638   3.941  10.482  0.2531  0.3894 -0.5010
    1Sil     Ob  832   2.166   3.941  10.899 -0.0272  0.4850  0.0496
    1Sil     Ob  833   1.857   3.621  12.294  0.3666 -0.4828  0.3141
    1Sil     Ob  834   2.439   3.621  11.498  0.2763 -0.6107  0.3545
    1Sil     Ob  835   2.101   3.500  11.846 -0.0180  0.1272 -0.0216
    1Sil     Ob  836   1.668   4.114  11.867 -0.5943 -0.4351  0.2530
    1Sil     Ob  837   2.202   4.107  12.229 -0.4723 -0.2517  0.1847
    1Sil     Ob  838   2.029   3.992  11.486 -0.5823  0.1094 -0.3166
    1Sil     Ob  839   2.033   3.930  12.322 -0.4048 -0.7493  0.1855
    1Sil     Ob  840   1.791   3.938  11.533 -0.0389  0.3652 -0.0468
    1Sil     Ob  841   2.330   3.926  11.929  0.2973 -0.0336 -0.3469
    1Sil     Ob  842   1.808   3.674  12.048 -0.3934  0.6705 -0.2083
    1Sil     Ob  843   2.402   3.689  11.252 -0.0148  0.7818 -0.0677
    1Sil     Ob  844   2.126   3.673  11.655 -0.2542  0.1937 -0.1704
    1Sil     Ob  845   1.803   3.858  12.225 -0.2629  0.3263  0.2345
    1Sil     Ob  846   1.568   3.872  11.441 -0.3129 -0.0525 -0.0239
    1Sil     Ob  847   2.153   3.746  11.898 -0.1493  0.1285 -0.8256
    1Sil     Ob  848   1.749   3.867  11.888  0.5551  0.2808 -0.1386
    1Sil     Ob  849   2.275   3.860  12.272 -0.0695 -0.9710 -0.0337
    1Sil     Ob  850   1.961   3.754  11.465  0.2804 -0.0127  0.3380
    1Sil     Ob  851   2.206   3.701  11.415 -0.2496  0.3034 -0.6772
    1Sil     Ob  852   1.619   3.671  12.228 -0.2086  0.1483 -0.1871
    1Sil     Ob  853   1.917   3.685  11.810 -0.5671 -0.4018 -0.7498
    1Sil     Ob  854   1.594   3.948  11.700  0.2507 -0.0476  0.1673
    1Sil     Ob  855   2.117   3.919  12.089 -0.2137  0.4739 -0.3555
    1Sil     Ob  856   1.867   3.931  11.293 -0.5362  0.3621  0.3128
    1Sil     Ob  857   1.888   4.111  11.106 -0.5363  0.3040 -0.8042
    1Sil     Ob  858   2.472   4.127  10.312 -0.8739  0.3247 -0.0147
    1Sil     Ob  859   2.133   4.008  10.666  0.0048 -0.5992  0.2931
    1Sil     Ob  860   1.719   4.614  10.660  0.2303 -0.1624  0.3786
    1Sil     Ob  861   2.259   4.614  11.041  0.2494  0.0263 -0.2374
    1Sil     Ob  862   2.083   4.502  10.296  0.4153  0.3987 -0.1592
    1Sil     Ob  863   2.085   4.442  11.133  0.3395  0.2576  0.3304
    1Sil     Ob  864   1.834   4.447  10.346 -0.1120  0.3216 -0.7619
    1Sil     Ob  865   2.378   4.437  10.729 -0.4958  0.1449 -0.2517
    1Sil     Ob  866   1.859   4.180  10.856 -0.2405 -0.7043 -0.2968
    1Sil     Ob  867   2.159   4.186  10.459 -0.0571  0.0402  0.0980
    1Sil     Ob  868   1.858   4.362  11.032  1.0645  0.0469  0.5894
    1Sil     Ob  869   1.606   4.367  10.244 -0.2633 -0.3502  0.0866
    1Sil     Ob  870   2.198   4.265  10.695 -0.1776  0.0039  0.0309
    1Sil     Ob  871   1.787   4.358  10.682  0.2416  0.1466  0.1544
    1Sil     Ob  872   2.329   4.370  11.071 -0.0606  0.2535 -0.4251
    1Sil     Ob  873   2.009   4.260  10.262 -0.6950 -0.1578  0.1616
    1Sil     Ob  874   2.247   4.217  10.221 -0.7076  0.0921 -0.2571
    1Sil     Ob  875   1.664   4.187  11.010  0.4541 -0.1800  0.0238
    1Sil     Ob  876   1.961   4.184  10.618 -0.3239  0.3366 -1.1317
    1Sil     Ob  877   1.634   4.432  10.497 -0.0015 -0.7825  0.1633
    1Sil     Ob  878   2.164   4.438  10.879 -0.0979  0.0214 -0.4543
    1Sil     Ob  879   1.861   4.106  12.298  0.0811  0.1043  0.1492
    1Sil     Ob  880   2.439   4.110  11.495  0.1355  0.2048  0.0560
    1Sil     Ob  881   2.102   3.997  11.844 -0.0602 -0.1368 -0.4125
    1Sil     Ob  882   1.672   4.601  11.865  0.3828  0.3127 -0.0092
    1Sil     Ob  883   2.214   4.608  12.238 -0.6756 -0.2125 -0.5821
    1Sil     Ob  884   2.031   4.486  11.470  0.6801  0.3557 -0.0482
    1Sil     Ob  885   2.046   4.429  12.316  0.1352  0.3711 -0.0847
    1Sil     Ob  886   1.794   4.416  11.519  0.2442  0.1007 -0.0403
    1Sil     Ob  887   2.332   4.421  11.939 -0.1077  0.1429  0.1388
    1Sil     Ob  888   1.831   4.189  12.050 -1.1505  0.1735 -0.4466
    1Sil     Ob  889   2.408   4.193  11.255 -0.0886 -0.8737  0.0412
    1Sil     Ob  890   2.120   4.183  11.649 -0.3432 -0.0590 -0.5334
    1Sil     Ob  891   1.816   4.353  12.230  0.0532 -0.0629  0.7008
    1Sil     Ob  892   1.561   4.357  11.437 -0.1680 -0.3133  0.1468
    1Sil     Ob  893   2.139   4.249  11.899  1.0507  0.7114 -0.1953
    1Sil     Ob  894   1.753   4.353  11.862 -0.5112  0.2433 -0.2253
    1Sil     Ob  895   2.273   4.356  12.264  0.0863  0.9975 -0.1411
    1Sil     Ob  896   1.951   4.236  11.439 -0.6191  0.1280  0.0689
    1Sil     Ob  897   2.200   4.162  11.409 -0.0401 -0.1696  0.1856
    1Sil     Ob  898   1.633   4.190  12.209 -0.0443  0.3387  0.0365
    1Sil     Ob  899   1.917   4.162  11.812  0.4562  0.0401  0.4542
    1Sil     Ob  900   1.585   4.430  11.680 -0.0245 -1.1425 -0.2530
    1Sil     Ob  901   2.123   4.437  12.075 -0.3145 -0.3288  0.3671
    1Sil     Ob  902   1.869   4.422  11.279 -0.0815 -0.5714 -0.1463
    1Sil     Ob  903   1.885   4.606  11.101 -0.2717 -0.2650  0.4009
    1Sil     Ob  904   2.484   4.612  10.317 -0.3062 -0.2224  0.4202
    1Sil     Ob  905   2.147   4.504  10.631 -0.2514 -1.1690  0.2710
    1Sil     Ob  906   2.085   1.488  11.128 -0.0539 -0.2475 -0.5975
    1Sil     Ob  907   1.853   1.479  10.338 -0.1918  0.1413  0.1173
    1Sil     Ob  908   2.390   1.492  10.736 -0.4315 -0.0095  0.2093
    1Sil     Ob  909   1.878   4.675  10.853  0.0218 -0.2125  0.4965
    1Sil     Ob  910   2.166   4.683  10.445 -0.3942 -0.2495  0.6662
    1Sil     Ob  911   1.860   4.862  11.028  0.0837  0.1686 -0.2995
    1Sil     Ob  912   1.619   4.864  10.253 -0.4661 -0.6184 -0.2423
    1Sil     Ob  913   2.199   4.745  10.693  0.4421 -0.7124  0.1219
    1Sil     Ob  914   1.805   1.403  10.689  0.3821 -0.3815 -0.2490
    1Sil     Ob  915   2.333   1.408  11.094  0.0904  0.1677 -0.2923
    1Sil     Ob  916   2.018   1.300  10.246 -0.1817 -0.2932 -0.7477
    1Sil     Ob  917   2.265   4.664  10.206 -0.7694 -0.2486 -0.2154
    1Sil     Ob  918   1.674   4.699  11.008  0.7138 -0.7690  0.4735
    1Sil     Ob  919   1.965   4.667  10.594  0.3060 -0.0036  0.2476
    1Sil     Ob  920   1.645   1.482  10.501 -0.7583  0.9867 -0.4870
    1Sil     Ob  921   2.178   1.459  10.898  0.2173 -0.0659  0.0230
    1Sil     Ob  922   1.854   4.601  12.298  0.1022  0.1689 -0.4384
    1Sil     Ob  923   2.431   4.594  11.499 -0.1192 -0.0934 -0.5401
    1Sil     Ob  924   2.105   4.491  11.832  0.2234 -0.6829  0.2315
    1Sil     Ob  925   2.038   1.472  12.318 -0.3337 -0.1604  0.3801
    1Sil     Ob  926   1.796   1.471  11.527  0.2105 -0.2489 -0.1925
    1Sil     Ob  927   2.330   1.470  11.925 -0.0236 -0.8416  0.1575
    1Sil     Ob  928   1.815   4.673  12.056  0.2793  0.2046 -0.0944
    1Sil     Ob  929   2.403   4.663  11.250 -0.2171 -0.1194  0.2527
    1Sil     Ob  930   2.115   4.665  11.649 -0.5555 -0.0114  0.0403
    1Sil     Ob  931   1.793   4.845  12.244 -0.7073 -0.3190  0.2197
    1Sil     Ob  932   1.568   4.848  11.433  0.5799 -0.3038 -0.4707
    1Sil     Ob  933   2.143   4.737  11.889  0.0697 -0.2361 -0.2470
    1Sil     Ob  934   1.741   1.400  11.881 -0.0931  0.4445  0.4188
    1Sil     Ob  935   2.283   1.403  12.255 -0.2418 -0.1944 -0.7275
    1Sil     Ob  936   1.960   1.288  11.450  0.3655 -0.1229  0.3018
    1Sil     Ob  937   2.204   4.679  11.410 -0.1715 -0.3337  0.4904
    1Sil     Ob  938   1.614   4.673  12.210  0.3415 -0.0879  0.3649
    1Sil     Ob  939   1.914   4.673  11.803  0.0464  0.1697 -0.7866
    1Sil     Ob  940   1.588   1.471  11.680  0.4368  0.0949  0.2797
    1Sil     Ob  941   2.121   1.474  12.072 -0.0153  0.0098  0.2371
    1Sil     Ob  942   1.873   1.480  11.287 -0.2199  0.3383 -0.3739
    1Sil     Ob  943   2.734   1.664  11.098 -0.8408 -0.1674 -0.9015
    1Sil     Ob  944   2.560   2.146  10.660  0.5501  0.1052 -0.4210
    1Sil     Ob  945   3.094   2.142  11.032  0.4733  0.4917  0.0002
    1Sil     Ob  946   2.917   2.037  10.265 -0.0269  0.1788 -0.0551
    1Sil     Ob  947   2.926   1.988  11.131  0.6422  0.4899  0.3943
    1Sil     Ob  948   2.676   1.997  10.334  0.2219  0.3648  0.2514
    1Sil     Ob  949  -0.111   1.969  10.729  0.2202  1.0563 -0.1117
    1Sil     Ob  950   2.703   1.718  10.844 -0.7159 -0.3972 -0.0769
    1Sil     Ob  951  -0.321   1.718  10.450  0.0111  0.8284  0.5658
    1Sil     Ob  952   2.703   1.915  11.023 -0.1582  0.2475 -0.1465
    1Sil     Ob  953   2.447   1.917  10.241 -0.3959  0.0739 -0.2409
    1Sil     Ob  954  -0.295   1.795  10.700 -0.0386 -0.5279 -0.1712
    1Sil     Ob  955   2.632   1.902  10.678 -0.1370  0.5099 -0.0114
    1Sil     Ob  956   3.163   1.904  11.076 -0.0275 -0.0900  0.1659
    1Sil     Ob  957   2.836   1.800  10.267  0.2317 -0.4699 -0.1426
    1Sil     Ob  958  -0.233   1.723  10.204 -0.6995 -0.3455 -0.1962
    1Sil     Ob  959   2.502   1.738  11.009 -0.0246 -0.0221  0.2449
    1Sil     Ob  960  -0.519   1.721  10.600 -0.5154  0.3704  0.4279
    1Sil     Ob  961   2.470   1.973  10.495  0.3250  0.2031  0.0767
    1Sil     Ob  962   3.007   1.964  10.885 -0.1878 -0.4355 -0.4615
    1Sil     Ob  963   2.681   1.651  12.298  0.2514  0.4862  0.2667
    1Sil     Ob  964   2.494   2.152  11.857 -0.1727  0.0809 -0.1632
    1Sil     Ob  965   3.027   2.139  12.253 -0.0323 -0.8109  0.0853
    1Sil     Ob  966   2.861   2.040  11.467  0.0803  0.7807 -0.3213
    1Sil     Ob  967   2.862   1.953  12.316 -0.6032  0.2499  0.2196
    1Sil     Ob  968   2.625   1.975  11.521  0.0822 -0.3709  0.1204
    1Sil     Ob  969  -0.158   1.959  11.920 -0.3389 -0.0286 -0.2137
    1Sil     Ob  970   2.640   1.712  12.045  0.2062  0.4205  0.3731
    1Sil     Ob  971  -0.069   1.730  11.242  0.3140 -0.4720  0.6334
    1Sil     Ob  972  -0.385   1.734  11.646 -0.1657  0.1800 -0.4017
    1Sil     Ob  973   2.624   1.898  12.239 -0.0704  0.2729 -0.2157
    1Sil     Ob  974   2.397   1.895  11.437 -0.0250  0.3945 -0.2469
    1Sil     Ob  975  -0.344   1.784  11.889  0.1283  0.1428 -0.2966
    1Sil     Ob  976   2.564   1.901  11.890 -0.0562 -0.1401 -0.2218
    1Sil     Ob  977   3.104   1.890  12.268 -0.2694  0.0028 -0.0093
    1Sil     Ob  978   2.795   1.801  11.439 -0.3468  0.3450 -0.2349
    1Sil     Ob  979  -0.280   1.714  11.391  0.4698  1.0579  0.2566
    1Sil     Ob  980   2.450   1.717  12.218 -0.0673  0.4149 -0.7577
    1Sil     Ob  981  -0.583   1.727  11.806 -0.5154  0.4363 -0.8507
    1Sil     Ob  982   2.422   1.967  11.685 -0.3310  0.0262 -0.3910
    1Sil     Ob  983   2.950   1.961  12.075  0.2983  0.5654  0.4605
    1Sil     Ob  984   2.706   1.986  11.274  0.6471  0.3818  0.1810
    1Sil     Ob  985   2.737   2.167  11.099  0.4381  0.1362 -0.8469
    1Sil     Ob  986  -0.346   2.040  10.646 -0.2160 -0.2716 -0.1706
    1Sil     Ob  987   2.544   2.637  10.660 -0.4132  0.2316 -0.2438
    1Sil     Ob  988   3.084   2.634  11.042 -0.2384 -0.0623  0.2474
    1Sil     Ob  989   2.919   2.522  10.279 -0.2452 -0.7383 -0.2122
    1Sil     Ob  990   2.909   2.474  11.122  0.2656  0.0397  0.6657
    1Sil     Ob  991   2.675   2.473  10.325  0.0027 -0.1874 -0.0829
    1Sil     Ob  992  -0.112   2.470  10.733  0.3227 -0.8525 -0.1297
    1Sil     Ob  993   2.706   2.225  10.849 -0.1899 -1.1526  0.3323
    1Sil     Ob  994  -0.313   2.201  10.446  0.2980 -0.3132  0.3208
    1Sil     Ob  995   2.684   2.403  11.030  0.3294 -0.1411 -0.2996
    1Sil     Ob  996   2.439   2.390  10.233 -0.2337 -0.3292 -0.5705
    1Sil     Ob  997  -0.276   2.286  10.689  0.1784  0.2531 -0.1067
    1Sil     Ob  998   2.624   2.395  10.670 -0.6086 -0.0077  0.2116
    1Sil     Ob  999   3.159   2.398  11.084  0.3622 -0.7277  0.4710
    1Sil     Ob 1000   2.839   2.288  10.268  0.4661  0.1719 -0.7926
    1Sil     Ob 1001  -0.228   2.228  10.208 -0.7827 -0.0152  0.3171
    1Sil     Ob 1002   2.499   2.233  10.999 -0.0678 -0.2565  0.1406
    1Sil     Ob 1003  -0.515   2.220  10.603 -0.6224 -0.3029  0.3359
    1Sil     Ob 1004   2.469   2.467  10.481  0.1014 -0.1189  0.2218
    1Sil     Ob 1005   3.004   2.457  10.884 -0.3571 -0.1289  0.1603
    1Sil     Ob 1006   2.688   2.135  12.302 -0.2300 -0.1614 -0.3500
    1Sil     Ob 1007  -0.401   2.033  11.839 -0.5693 -0.0975 -0.0426
    1Sil     Ob 1008   2.491   2.633  11.856  0.0219  0.1183 -0.4008
    1Sil     Ob 1009   3.039   2.637  12.226 -0.4679 -0.5328  0.5364
    1Sil     Ob 1010   2.864   2.538  11.470  0.3643 -0.1134 -0.6830
    1Sil     Ob 1011   2.866   2.468  12.318 -0.0388 -0.0516  0.0159
    1Sil     Ob 1012   2.611   2.471  11.522 -0.4676 -0.1055 -0.5688
    1Sil     Ob 1013  -0.173   2.465  11.918 -0.3609  1.0320 -0.1710
    1Sil     Ob 1014   2.641   2.204  12.049 -0.2530  0.3010 -0.7141
    1Sil     Ob 1015  -0.080   2.212  11.238  0.2501 -0.4524  0.2351
    1Sil     Ob 1016  -0.379   2.211  11.645  0.4749  0.2579  0.5956
    1Sil     Ob 1017   2.636   2.388  12.234  0.1222 -0.0399  0.2299
    1Sil     Ob 1018   2.390   2.399  11.432 -0.6063  0.4973 -0.4733
    1Sil     Ob 1019  -0.348   2.288  11.890 -0.1620  0.6068 -0.6656
    1Sil     Ob 1020   2.561   2.391  11.888  0.9911 -0.0304  0.2076
    1Sil     Ob 1021   3.098   2.391  12.259 -0.6561 -0.2139  0.3874
    1Sil     Ob 1022   2.780   2.282  11.446 -0.0756  0.0989 -0.3431
    1Sil     Ob 1023  -0.287   2.222  11.407 -0.2008  0.4033  0.2027
    1Sil     Ob 1024   2.454   2.198  12.220  0.3795  0.0097 -0.3211
    1Sil     Ob 1025  -0.580   2.218  11.806  0.6190 -0.4741 -0.0985
    1Sil     Ob 1026   2.415   2.463  11.684 -0.3414  0.5446 -0.6839
    1Sil     Ob 1027   2.936   2.470  12.069 -0.8115  0.0751 -0.1934
    1Sil     Ob 1028   2.706   2.466  11.277 -0.8587 -0.3934 -0.0019
    1Sil     Ob 1029   2.735   2.646  11.083 -0.1581 -0.6291 -0.3198
    1Sil     Ob 1030  -0.342   2.528  10.638  0.0745 -0.8675 -0.3688
    1Sil     Ob 1031   2.540   3.122  10.681  0.4174 -0.4898  0.4297
    1Sil     Ob 1032   3.093   3.135  11.040  0.3080 -0.0685 -0.2722
    1Sil     Ob 1033   2.898   3.023  10.271 -0.3631 -0.1783 -0.0036
    1Sil     Ob 1034   2.921   2.968  11.126  0.3603  0.0184 -0.2964
    1Sil     Ob 1035   2.667   2.940  10.335 -0.1690  0.1465  0.6990
    1Sil     Ob 1036  -0.104   2.942  10.732 -0.4521 -0.1638  0.5450
    1Sil     Ob 1037   2.705   2.708  10.841  0.2891  0.5126  0.1988
    1Sil     Ob 1038  -0.330   2.704  10.450  0.3171  0.1527 -0.1240
    1Sil     Ob 1039   2.696   2.898  11.028 -0.1407  0.1256 -0.7066
    1Sil     Ob 1040   2.434   2.884  10.251 -0.7227 -0.1257 -0.7504
    1Sil     Ob 1041  -0.292   2.780  10.697  0.0083  1.0172 -0.0839
    1Sil     Ob 1042   2.619   2.888  10.678 -0.2039 -0.0699  0.1137
    1Sil     Ob 1043   3.163   2.881  11.071  0.4115 -0.0657  0.3380
    1Sil     Ob 1044   2.835   2.767  10.247  0.0213 -0.1272 -0.0474
    1Sil     Ob 1045  -0.235   2.703  10.205  0.0376  0.0785  0.1976
    1Sil     Ob 1046   2.505   2.720  11.001 -0.5780  0.3596 -0.5906
    1Sil     Ob 1047  -0.524   2.704  10.605 -0.0742  0.1592 -0.1919
    1Sil     Ob 1048   2.462   2.962  10.500 -0.1302  0.4458 -0.0254
    1Sil     Ob 1049   3.007   2.971  10.875 -0.1430 -0.2400 -0.1719
    1Sil     Ob 1050   2.670   2.631  12.288 -0.1232 -0.1297  0.0925
    1Sil     Ob 1051  -0.393   2.526  11.814  0.4752 -0.1545  0.2245
    1Sil     Ob 1052   2.506   3.123  11.844 -0.0485 -0.2141  0.2215
    1Sil     Ob 1053   3.031   3.126  12.240  0.0045  0.3590  0.4172
    1Sil     Ob 1054   2.852   3.019  11.486 -0.2489  0.1378 -0.5756
    1Sil     Ob 1055   2.860   2.955  12.316  0.0951  0.3824 -0.1593
    1Sil     Ob 1056   2.614   2.939  11.521  0.1684  0.2973  0.3333
    1Sil     Ob 1057  -0.164   2.936  11.930  0.3157  0.2704  0.1447
    1Sil     Ob 1058   2.648   2.701  12.038  0.7638 -0.1684  0.2237
    1Sil     Ob 1059  -0.077   2.712  11.247  0.0376 -0.0022 -0.2033
    1Sil     Ob 1060  -0.385   2.714  11.637  0.0140 -0.7083 -0.0733
    1Sil     Ob 1061   2.635   2.879  12.223 -0.4667  0.1279 -0.0468
    1Sil     Ob 1062   2.382   2.879  11.437  0.0991  0.7929  0.0275
    1Sil     Ob 1063  -0.350   2.768  11.888 -0.2126 -0.3704  0.1512
    1Sil     Ob 1064   2.570   2.880  11.877  0.5853  0.1209 -0.4193
    1Sil     Ob 1065   3.104   2.880  12.273  0.1565  0.8847  0.2933
    1Sil     Ob 1066   2.795   2.776  11.424  0.5099 -0.5340 -0.3638
    1Sil     Ob 1067  -0.282   2.713  11.401 -0.0613 -0.4137 -0.5791
    1Sil     Ob 1068   2.441   2.713  12.195 -0.2571 -0.1646 -0.6927
    1Sil     Ob 1069  -0.587   2.699  11.790 -0.9928  0.0753  0.2241
    1Sil     Ob 1070   2.416   2.952  11.680 -0.9808 -0.6676 -0.3158
    1Sil     Ob 1071   2.942   2.949  12.074  0.3541 -0.4139 -0.3880
    1Sil     Ob 1072   2.706   2.962  11.277 -1.0134 -0.0213 -0.7824
    1Sil     Ob 1073   2.737   3.136  11.089 -0.0193 -0.6590 -0.1761
    1Sil     Ob 1074  -0.325   3.028  10.628  0.0150 -0.5282  0.3102
    1Sil     Ob 1075   2.556   3.618  10.643 -0.5017 -0.3665 -0.0004
    1Sil     Ob 1076   3.085   3.631  11.047 -0.1256  0.3449 -0.9321
    1Sil     Ob 1077   2.922   3.517  10.290 -0.0694  0.0278  0.4349
    1Sil     Ob 1078   2.912   3.458  11.129 -0.4018  0.8266  0.0853
    1Sil     Ob 1079   2.683   3.458  10.335 -0.9591  0.1626 -0.4875
    1Sil     Ob 1080  -0.108   3.428  10.739  0.3049  0.5395 -0.1099
    1Sil     Ob 1081   2.710   3.207  10.856  0.9533 -0.5630  0.7540
    1Sil     Ob 1082  -0.339   3.204  10.447 -0.4810  0.5305 -0.7717
    1Sil     Ob 1083   2.682   3.379  11.035  0.6175 -0.4101 -0.0010
    1Sil     Ob 1084   2.448   3.377  10.241 -0.0924 -0.1452  0.6109
    1Sil     Ob 1085  -0.307   3.272  10.702  0.2928  0.4948  0.2937
    1Sil     Ob 1086   2.629   3.377  10.676  0.4618  0.5456 -0.3579
    1Sil     Ob 1087   3.155   3.387  11.089  0.3245 -0.0485  0.0792
    1Sil     Ob 1088   2.839   3.283  10.242 -0.0535  0.0018 -0.6709
    1Sil     Ob 1089  -0.235   3.199  10.208  0.8591  0.3057 -0.8460
    1Sil     Ob 1090   2.503   3.195  11.009 -0.2442  0.2296 -0.2669
    1Sil     Ob 1091  -0.538   3.179  10.613 -0.0584  0.3958 -0.4495
    1Sil     Ob 1092   2.478   3.440  10.485 -0.3124 -0.0652 -0.8269
    1Sil     Ob 1093   2.997   3.444  10.890 -0.1960 -0.2476 -0.1597
    1Sil     Ob 1094   2.681   3.124  12.279  0.4408  0.0260  0.5560
    1Sil     Ob 1095  -0.380   3.016  11.819 -0.3468 -0.5195 -0.3018
    1Sil     Ob 1096   2.486   3.616  11.860  0.3325  0.7257  0.1628
    1Sil     Ob 1097   3.034   3.613  12.250 -0.6977  0.0951  0.1264
    1Sil     Ob 1098   2.854   3.509  11.466 -0.3075 -0.1394 -0.3627
    1Sil     Ob 1099   2.865   3.432  12.302 -0.2817 -0.0939  0.1335
    1Sil     Ob 1100   2.614   3.441  11.525 -0.3688  0.0488 -0.1501
    1Sil     Ob 1101  -0.161   3.430  11.913 -0.0668  0.1260 -0.5521
    1Sil     Ob 1102   2.655   3.196  12.035  0.1629 -0.1007  0.2699
    1Sil     Ob 1103  -0.083   3.202  11.247 -0.4966  0.0495  0.6589
    1Sil     Ob 1104  -0.366   3.200  11.639 -0.2863 -0.1458 -0.2726
    1Sil     Ob 1105   2.636   3.374  12.229  0.2010  0.2004 -0.2776
    1Sil     Ob 1106   2.379   3.374  11.440  0.1993  0.6784 -0.3554
    1Sil     Ob 1107  -0.349   3.266  11.896 -0.3237  0.3541 -0.4486
    1Sil     Ob 1108   2.576   3.374  11.865 -0.2430 -0.3388  0.3135
    1Sil     Ob 1109   3.105   3.368  12.262 -0.3783  0.0404  0.1100
    1Sil     Ob 1110   2.787   3.264  11.442 -0.0687  0.4549 -0.4506
    1Sil     Ob 1111  -0.291   3.190  11.398  0.1383  0.0461 -0.5156
    1Sil     Ob 1112   2.447   3.188  12.206 -0.1260  0.0238 -0.0651
    1Sil     Ob 1113  -0.576   3.187  11.789  0.1942  0.5697 -0.2422
    1Sil     Ob 1114   2.410   3.440  11.682 -0.7661 -0.2475 -0.3323
    1Sil     Ob 1115   2.958   3.453  12.064 -0.1900  0.5819 -0.7063
    1Sil     Ob 1116   2.698   3.447  11.279 -0.1076  0.3188  0.4602
    1Sil     Ob 1117   2.716   3.628  11.110 -0.2476  0.1259  0.5379
    1Sil     Ob 1118  -0.340   3.522  10.647 -0.3824  0.0894  0.0139
    1Sil     Ob 1119   2.541   4.116  10.668  0.3076 -0.2250  0.2398
    1Sil     Ob 1120   3.084   4.123  11.055  0.1180 -0.4262  0.3359
    1Sil     Ob 1121   2.916   4.021  10.271 -0.0948 -0.1124 -0.6061
    1Sil     Ob 1122   2.922   3.936  11.122 -0.6014 -0.2277 -0.3243
    1Sil     Ob 1123   2.679   3.960  10.338 -0.1323  0.0608 -0.5977
    1Sil     Ob 1124  -0.110   3.922  10.726  0.5049  0.2034 -0.0450
    1Sil     Ob 1125   2.700   3.686  10.851 -0.2696  0.1588  0.2675
    1Sil     Ob 1126  -0.318   3.690  10.457  0.5481  0.1598  0.2540
    1Sil     Ob 1127   2.692   3.874  11.035 -0.0750  0.4856 -0.3337
    1Sil     Ob 1128   2.438   3.871  10.244 -0.2429 -0.1137  0.4834
    1Sil     Ob 1129  -0.298   3.754  10.707  0.1796 -0.2754 -0.0942
    1Sil     Ob 1130   2.623   3.868  10.685 -0.2944 -0.1494 -0.7489
    1Sil     Ob 1131   3.165   3.872  11.062 -0.3450 -0.2262 -0.1540
    1Sil     Ob 1132   2.851   3.769  10.264  0.8185 -0.3851 -0.3158
    1Sil     Ob 1133  -0.219   3.688  10.218 -0.1605 -0.0653 -0.4292
    1Sil     Ob 1134   2.498   3.704  11.013  0.4288 -0.6560  0.4115
    1Sil     Ob 1135  -0.523   3.691  10.606  0.7153  0.0511 -0.4129
    1Sil     Ob 1136   2.469   3.941  10.498 -0.5455 -0.1573  0.1745
    1Sil     Ob 1137   3.003   3.957  10.881 -0.5490 -0.1628  0.1394
    1Sil     Ob 1138   2.679   3.611  12.287  0.0952  0.0549 -0.2404
    1Sil     Ob 1139  -0.382   3.510  11.812  0.0933  0.6003  0.6157
    1Sil     Ob 1140   2.500   4.100  11.853  0.2976 -0.3013 -0.4351
    1Sil     Ob 1141   3.025   4.117  12.235 -0.5695  0.1570  0.2123
    1Sil     Ob 1142   2.859   4.004  11.480  0.4986  0.0167  0.5897
    1Sil     Ob 1143   2.858   3.937  12.323 -0.7504 -0.1055  0.1406
    1Sil     Ob 1144   2.618   3.933  11.529  0.2368 -0.2905  0.2446
    1Sil     Ob 1145  -0.166   3.919  11.923  0.0295  0.2423 -0.1045
    1Sil     Ob 1146   2.648   3.684  12.034  0.3997  0.1585  0.0806
    1Sil     Ob 1147  -0.077   3.703  11.245  0.1412  0.5052  0.4001
    1Sil     Ob 1148  -0.382   3.690  11.629 -0.1105  0.3863  0.1797
    1Sil     Ob 1149   2.624   3.857  12.235  0.4424 -0.2272  0.0770
    1Sil     Ob 1150   2.395   3.870  11.438  0.3796 -0.0688 -0.0892
    1Sil     Ob 1151  -0.359   3.752  11.885  0.1253  0.1660 -0.5133
    1Sil     Ob 1152   2.567   3.862  11.864 -0.2033 -0.1836 -0.1814
    1Sil     Ob 1153   3.102   3.866  12.275 -0.4985  0.2123 -0.2130
    1Sil     Ob 1154   2.790   3.753  11.431 -1.1039 -0.4761 -0.4215
    1Sil     Ob 1155  -0.288   3.693  11.392  0.8226  0.3123  0.5369
    1Sil     Ob 1156   2.453   3.685  12.204  0.0039  0.2851 -0.3997
    1Sil     Ob 1157  -0.583   3.675  11.792  0.3190  0.0964 -0.4762
    1Sil     Ob 1158   2.414   3.937  11.679 -0.9772 -0.5338 -0.6521
    1Sil     Ob 1159   2.941   3.936  12.077  0.1100  0.2625 -0.4084
    1Sil     Ob 1160   2.704   3.942  11.285 -0.1684 -0.6181 -0.0324
    1Sil     Ob 1161   2.732   4.118  11.105 -0.1565 -0.3142  0.2454
    1Sil     Ob 1162  -0.332   4.004  10.632  0.4418 -0.0251 -0.3941
    1Sil     Ob 1163   2.553   4.613  10.656 -0.2794 -0.4236 -0.5737
    1Sil     Ob 1164   3.096   4.614  11.039 -0.7451 -0.8685 -0.5801
    1Sil     Ob 1165   2.920   4.503  10.272 -0.5277  0.7693 -0.4833
    1Sil     Ob 1166   2.923   4.439  11.128 -0.2737  0.5309  0.0162
    1Sil     Ob 1167   2.676   4.450  10.338 -0.3417 -0.6976  0.1852
    1Sil     Ob 1168  -0.107   4.421  10.743  0.3213 -0.5256  0.3227
    1Sil     Ob 1169   2.696   4.179  10.854  0.1814 -0.1224  0.4067
    1Sil     Ob 1170  -0.323   4.183  10.455 -0.1029 -0.1735  0.2321
    1Sil     Ob 1171   2.687   4.368  11.034  0.1513 -0.2538 -0.0697
    1Sil     Ob 1172   2.447   4.370  10.235 -0.3236 -0.4832 -0.5809
    1Sil     Ob 1173  -0.306   4.244  10.712  0.9494 -0.1733 -0.0596
    1Sil     Ob 1174   2.614   4.352  10.693 -0.1989 -0.3865  0.3030
    1Sil     Ob 1175   3.156   4.368  11.085 -0.6646  0.2233 -0.3757
    1Sil     Ob 1176   2.836   4.267  10.275 -0.4431  0.2064 -0.8133
    1Sil     Ob 1177  -0.237   4.210  10.218  0.0027 -0.3580  0.2258
    1Sil     Ob 1178   2.497   4.186  11.013  0.3221 -0.1866  0.1036
    1Sil     Ob 1179  -0.533   4.170  10.607  0.4012  0.5630  0.5430
    1Sil     Ob 1180   2.478   4.425  10.492 -0.3106  0.4261 -0.6337
    1Sil     Ob 1181   3.006   4.430  10.883  0.8123 -0.3946  0.8148
    1Sil     Ob 1182   2.677   4.107  12.298  0.2855 -0.2177  0.0039
    1Sil     Ob 1183  -0.395   4.009  11.829  0.1304  0.4122  0.1895
    1Sil     Ob 1184   2.500   4.600  11.862 -0.1919  0.0055  0.0278
    1Sil     Ob 1185   3.021   4.599  12.245 -0.5087  0.5203 -0.1169
    1Sil     Ob 1186   2.850   4.500  11.478 -0.5890 -0.4558  0.1281
    1Sil     Ob 1187   2.868   4.423  12.320  0.4974 -0.0204 -0.1473
    1Sil     Ob 1188   2.611   4.398  11.520  0.0703 -0.8838  0.5336
    1Sil     Ob 1189  -0.163   4.434  11.930  0.1693 -0.2218  0.7473
    1Sil     Ob 1190   2.653   4.195  12.056 -0.0141  0.5603 -0.6538
    1Sil     Ob 1191  -0.087   4.192  11.254 -0.5250 -0.1301  0.1465
    1Sil     Ob 1192  -0.384   4.186  11.638  0.5828 -0.1491 -0.0793
    1Sil     Ob 1193   2.620   4.352  12.264 -0.4522 -0.3842 -0.1337
    1Sil     Ob 1194   2.370   4.349  11.452 -0.6950  0.4245 -0.2793
    1Sil     Ob 1195  -0.341   4.249  11.885 -0.6600  0.3540  0.6419
    1Sil     Ob 1196   2.566   4.358  11.880 -0.3667  0.1112 -0.1830
    1Sil     Ob 1197   3.097   4.359  12.269  0.4960  0.3694  0.4304
    1Sil     Ob 1198   2.789   4.248  11.439  0.4518  0.3893  0.3994
    1Sil     Ob 1199  -0.290   4.185  11.402  0.7727 -0.0290 -0.2554
    1Sil     Ob 1200   2.450   4.167  12.215 -0.3670  0.3804 -0.0692
    1Sil     Ob 1201  -0.580   4.189  11.808 -0.1881 -0.7866  0.2415
    1Sil     Ob 1202   2.409   4.434  11.688  0.6578 -0.2772  0.4359
    1Sil     Ob 1203   2.947   4.428  12.072 -0.7267  0.5577 -0.1871
    1Sil     Ob 1204   2.701   4.424  11.283 -0.5130 -0.3714 -0.1869
    1Sil     Ob 1205   2.727   4.611  11.107 -0.3510 -0.2237 -0.2518
    1Sil     Ob 1206  -0.337   4.498  10.643  0.3491  0.3432 -0.3918
    1Sil     Ob 1207  -0.410   1.480  11.123 -0.2147  0.0595 -0.3879
    1Sil     Ob 1208  -0.650   1.472  10.339  0.5279  0.1876 -0.1540
    1Sil     Ob 1209  -0.103   1.471  10.735 -0.2557  0.3398 -0.8811
    1Sil     Ob 1210   2.699   4.685  10.859 -0.0757 -0.0790  0.5844
    1Sil     Ob 1211  -0.317   4.664  10.454 -0.1245 -0.1651 -0.7677
    1Sil     Ob 1212   2.679   4.865  11.048  0.0724  0.2400 -0.3215
    1Sil     Ob 1213   2.433   4.859  10.259  0.3495  0.2438  0.3522
    1Sil     Ob 1214  -0.300   4.743  10.713 -0.0031  0.1166  0.1106
    1Sil     Ob 1215   2.627   1.410  10.674  0.0793  0.3167 -1.0191
    1Sil     Ob 1216  -0.165   1.419  11.077 -0.0194 -0.0851  0.4132
    1Sil     Ob 1217  -0.483   1.292  10.269 -0.3906  0.1526 -0.1570
    1Sil     Ob 1218  -0.229   4.681  10.213  0.2431 -0.3568  0.5193
    1Sil     Ob 1219   2.501   4.678  11.013  0.0579 -0.7498 -0.0594
    1Sil     Ob 1220  -0.523   4.674  10.613 -0.5467  0.2568 -0.4190
    1Sil     Ob 1221   2.453   1.485  10.493 -0.1774  0.0305  0.4189
    1Sil     Ob 1222  -0.320   1.482  10.889  0.3121  0.1073 -0.1915
    1Sil     Ob 1223   2.691   4.598  12.305  0.0398  0.3857 -0.5470
    1Sil     Ob 1224  -0.390   4.494  11.823 -0.2731 -0.6665  0.6616
    1Sil     Ob 1225  -0.451   1.470  12.325 -0.0656 -0.4614 -0.2737
    1Sil     Ob 1226  -0.692   1.466  11.530 -0.4133  0.0273  0.2746
    1Sil     Ob 1227  -0.162   1.473  11.923 -0.3461 -0.2545 -0.1511
    1Sil     Ob 1228   2.660   4.671  12.056 -0.2764 -0.3161 -0.1049
    1Sil     Ob 1229  -0.072   4.689  11.251 -0.0817 -0.5910  0.5306
    1Sil     Ob 1230  -0.383   4.679  11.638 -0.3360  0.3516 -0.8276
    1Sil     Ob 1231   2.630   4.847  12.248  0.6307 -0.1210  0.0296
    1Sil     Ob 1232   2.398   4.842  11.436  0.5690 -0.6830  0.1976
    1Sil     Ob 1233  -0.350   4.742  11.888  0.7208  0.0269 -0.2299
    1Sil     Ob 1234   2.575   1.400  11.882  0.2956  0.5336 -0.4973
    1Sil     Ob 1235  -0.213   1.392  12.271  0.0281  0.5462 -0.3917
    1Sil     Ob 1236  -0.526   1.304  11.435 -0.3070 -0.3976  0.0551
    1Sil     Ob 1237  -0.284   4.680  11.395 -0.0968 -0.5070  0.2023
    1Sil     Ob 1238   2.453   4.667  12.212 -0.1513  0.0657  0.5094
    1Sil     Ob 1239  -0.577   4.661  11.802 -0.2729 -0.9040 -0.2554
    1Sil     Ob 1240   2.422   1.468  11.679  0.3376  0.1656  0.6645
    1Sil     Ob 1241  -0.373   1.457  12.081 -0.1836 -0.5782  0.1189
    1Sil     Ob 1242   2.709   1.495  11.287 -0.5112 -0.0816  0.6908
    1Sil     Ob 1243  -0.002   1.656  10.293 -0.2941  0.1166  0.9262
    1Sil     Ob 1244  -0.059   1.658  11.491  0.0467  0.3681  0.1819
    1Sil     Ob 1245   0.000   2.147  10.312  0.1140 -0.5199  0.3235
    1Sil     Ob 1246  -0.054   2.136  11.484 -0.0268  0.6844  0.0027
    1Sil     Ob 1247   0.002   2.636  10.298  0.1646  0.4702 -0.5717
    1Sil     Ob 1248  -0.059   2.642  11.498 -0.0444  0.3222  0.0952
    1Sil     Ob 1249   0.006   3.132  10.295  0.6339 -0.2720  0.5818
    1Sil     Ob 1250  -0.047   3.134  11.491  0.0594 -0.4029 -0.0035
    1Sil     Ob 1251   0.004   3.627  10.312 -0.1537 -0.3210 -0.2750
    1Sil     Ob 1252  -0.047   3.623  11.488 -0.5646 -0.2249  0.3715
    1Sil     Ob 1253   0.004   4.125  10.293 -0.1197 -0.2287 -0.0493
    1Sil     Ob 1254  -0.061   4.116  11.499  0.5933 -0.2668  0.5453
    1Sil     Ob 1255  -0.001   4.618  10.326 -0.0067  0.0873  0.4650
    1Sil     Ob 1256  -0.050   4.611  11.494 -0.4363  0.3269  0.7125
    1Sil     Ob 1257   0.486   1.537  10.644 -0.2828 -0.7112  1.2442
    1Sil     Ob 1258   0.460   1.542  11.820  0.8016 -0.3257 -0.1751
    1Sil     Ob 1259   1.328   1.547  10.647  0.3172  0.5011 -0.0696
    1Sil     Ob 1260   1.261   1.533  11.835 -0.5139  0.3674 -0.3791
    1Sil     Ob 1261   2.146   1.543  10.654 -0.3023 -0.5851  0.2396
    1Sil     Ob 1262   2.106   1.547  11.823 -0.3062  0.4544  0.0050
    1Sil     Ob 1263  -0.339   1.546  10.639  0.2473 -0.4011 -0.1406
    1Sil     Ob 1264  -0.400   1.541  11.830  0.6238  0.5481 -0.2929
    1Sil     Ob 1265   0.058   1.659  10.667  0.0031 -0.3530 -0.6526
    1Sil     Ob 1266   0.593   1.650  11.037  0.4469  0.0772  0.1817
    1Sil     Ob 1267   0.425   1.543  10.275 -0.0592 -0.1542 -0.0961
    1Sil     Ob 1268   0.011   1.655  11.862  0.0136 -0.4832 -0.2109
    1Sil     Ob 1269   0.547   1.646  12.271  0.4164  0.3867 -0.1703
    1Sil     Ob 1270   0.372   1.544  11.475  0.2542  0.5872 -0.1418
    1Sil     Ob 1271   0.891   1.649  10.666  0.7562 -0.7044  0.0597
    1Sil     Ob 1272   1.425   1.665  11.050  0.4798  0.4862  0.2678
    1Sil     Ob 1273   1.242   1.560  10.301  0.4351  0.3961 -0.3213
    1Sil     Ob 1274   0.848   1.647  11.848 -0.1535 -0.0310  0.5903
    1Sil     Ob 1275   1.371   1.634  12.238 -0.0615  0.0595 -0.4056
    1Sil     Ob 1276   1.216   1.541  11.473 -0.4715  0.2669  0.3611
    1Sil     Ob 1277   1.737   1.656  10.657 -0.7174  0.0687 -0.1319
    1Sil     Ob 1278   2.268   1.647  11.042 -0.2280  0.3567 -0.2534
    1Sil     Ob 1279   2.094   1.544  10.275 -0.0265  0.1042 -0.1537
    1Sil     Ob 1280   1.669   1.652  11.844  0.0354  0.2132 -0.5243
    1Sil     Ob 1281   2.209   1.648  12.235  0.8735 -0.3213  0.0718
    1Sil     Ob 1282   2.033   1.542  11.482  0.1505  0.0256  0.3186
    1Sil     Ob 1283   2.554   1.655  10.652 -0.4563 -0.1475  0.1505
    1Sil     Ob 1284  -0.226   1.657  11.039 -0.2155  0.0659 -0.0215
    1Sil     Ob 1285  -0.409   1.547  10.278 -0.1813  0.6069  0.3327
    1Sil     Ob 1286   2.492   1.655  11.847 -0.1632  0.2753 -0.1506
    1Sil     Ob 1287  -0.271   1.643  12.232  0.1903  0.4566 -0.0593
    1Sil     Ob 1288  -0.458   1.550  11.490 -0.5273  0.2041  1.2004
    1Sil     Oy 1289   0.812   1.708  10.066  0.2317 -0.0836 -0.0045
    1Sil     Oy 1290   0.264   1.944  10.073  0.0894  0.1070  0.6825
    1Sil     Oy 1291   0.160   1.961  12.476 -0.1344  0.4800 -0.0671
    1Sil     Oy 1292   0.708   1.734  12.460 -0.9175  0.1535  0.5675
    1Sil     Oy 1293   0.785   2.193  10.053 -0.0781 -0.5736  0.4421
    1Sil     Oy 1294   0.269   2.436  10.087 -0.0114  0.6174 -0.2773
    1Sil     Oy 1295   0.193   2.452  12.496 -0.4309 -0.0030  0.1773
    1Sil     Oy 1296   0.697   2.195  12.436  0.9122  0.8488 -0.4878
    1Sil     Oy 1297   0.813   2.692  10.058  0.4109  0.4944  0.3339
    1Sil     Oy 1298   0.276   2.934  10.088 -0.1066  0.1758  0.0657
    1Sil     Oy 1299   0.206   2.953  12.495  0.5814  0.4238 -0.1710
    1Sil     Oy 1300   0.689   2.715  12.434 -0.0870 -0.5124  0.1849
    1Sil     Oy 1301   0.793   3.213  10.052 -0.4141 -0.3612  0.0850
    1Sil     Oy 1302   0.259   3.445  10.088  0.3204 -0.0779 -0.6794
    1Sil     Oy 1303   0.183   3.445  12.478  0.3294 -0.0054 -0.2113
    1Sil     Oy 1304   0.691   3.192  12.432  0.6263  0.3359 -0.3799
    1Sil     Oy 1305   0.803   3.705  10.055  0.8198  0.2435 -0.4926
    1Sil     Oy 1306   0.255   3.931  10.098 -0.1297  0.6295 -0.3987
    1Sil     Oy 1307   0.178   3.933  12.486 -0.2660 -0.3497  0.6862
    1Sil     Oy 1308   0.698   3.661  12.445  0.4865  0.3127  0.2602
    1Sil     Oy 1309   0.793   4.217  10.052  0.4170  0.1540  0.5172
    1Sil     Oy 1310   0.247   4.434  10.090  0.5137 -0.0502  0.2502
    1Sil     Oy 1311   0.174   4.446  12.497  0.1375  0.1109  0.5479
    1Sil     Oy 1312   0.672   4.195  12.444 -0.2456  0.0937  0.0324
    1Sil     Oy 1313   0.813   4.678  10.068  0.2703 -0.4145  0.4549
    1Sil     Oy 1314   0.266   1.462  10.087  0.3712 -0.2476  0.3341
    1Sil     Oy 1315   0.183   1.465  12.480  0.5411 -0.7432  0.2472
    1Sil     Oy 1316   0.672   4.677  12.443  0.0238  0.0292  0.7675
    1Sil     Oy 1317   1.641   1.750  10.080  0.4036 -0.1533  0.2739
    1Sil     Oy 1318   1.126   1.981  10.094  0.4390 -0.0172 -0.4128
    1Sil     Oy 1319   1.014   1.979  12.486 -0.5100  0.0233 -0.0117
    1Sil     Oy 1320   1.502   1.711  12.435  0.5469 -0.2973  0.1334
    1Sil     Oy 1321   1.635   2.203  10.053 -0.3342  0.2839 -0.2432
    1Sil     Oy 1322   1.087   2.455  10.097  0.4237  0.0195 -0.1013
    1Sil     Oy 1323   1.016   2.471  12.487  0.4065 -0.1396  0.0507
    1Sil     Oy 1324   1.505   2.213  12.450 -0.4978 -0.3615 -0.0066
    1Sil     Oy 1325   1.633   2.738  10.042 -0.2011  0.0625 -0.1282
    1Sil     Oy 1326   1.117   2.977  10.086 -0.7773  0.4385  0.6374
    1Sil     Oy 1327   1.006   2.937  12.491 -0.2580 -0.5004 -0.6812
    1Sil     Oy 1328   1.514   2.699  12.451  0.7197  0.0077 -0.1158
    1Sil     Oy 1329   1.622   3.218  10.042  1.0035  0.1838 -0.1260
    1Sil     Oy 1330   1.100   3.458  10.096  0.4814 -0.1648 -0.3291
    1Sil     Oy 1331   1.004   3.426  12.455 -0.4217  0.5779 -0.1933
    1Sil     Oy 1332   1.550   3.187  12.427 -0.5092  0.3148 -0.4183
    1Sil     Oy 1333   1.642   3.701  10.054  0.1138 -0.1401 -0.9610
    1Sil     Oy 1334   1.104   3.973  10.093 -0.6043 -0.6471 -0.5303
    1Sil     Oy 1335   1.030   3.968  12.488 -0.4380 -0.2705 -0.5577
    1Sil     Oy 1336   1.520   3.699  12.456  0.1569  0.9374  0.2083
    1Sil     Oy 1337   1.595   4.192  10.055  0.6536  1.0908 -0.2912
    1Sil     Oy 1338   1.069   4.437  10.091  0.1973  0.6529 -0.5976
    1Sil     Oy 1339   1.022   4.430  12.501  0.0444  0.1391  0.0357
    1Sil     Oy 1340   1.519   4.191  12.440  0.0980  0.1821  0.1730
    1Sil     Oy 1341   1.633   4.685  10.074  1.3230  0.1239  0.0979
    1Sil     Oy 1342   1.118   1.486  10.080  0.0491 -0.4438 -0.0554
    1Sil     Oy 1343   0.974   1.479  12.478 -0.0457  0.2125 -0.1543
    1Sil     Oy 1344   1.503   4.659  12.450  0.7423  0.0517 -0.4462
    1Sil     Oy 1345   2.444   1.725  10.061  0.6115  0.1060  0.4825
    1Sil     Oy 1346   1.911   1.931  10.106  0.5537  0.1068 -0.1921
    1Sil     Oy 1347   1.824   1.972  12.481  0.1460  0.4106 -0.2952
    1Sil     Oy 1348   2.329   1.712  12.443 -0.1177 -0.1904  0.0775
    1Sil     Oy 1349   2.444   2.198  10.058  0.5237 -0.2241  0.6765
    1Sil     Oy 1350   1.921   2.440  10.084  0.1508 -0.3313  0.3957
    1Sil     Oy 1351   1.840   2.488  12.488 -0.5740 -0.0126 -0.6611
    1Sil     Oy 1352   2.345   2.209  12.463  0.1687  0.3577 -0.5893
    1Sil     Oy 1353   2.433   2.716  10.045  0.1843 -0.0562 -0.1835
    1Sil     Oy 1354   1.920   2.984  10.100  0.0081  0.0665 -0.0852
    1Sil     Oy 1355   1.838   2.959  12.474 -0.1624 -0.0909 -0.3737
    1Sil     Oy 1356   2.353   2.729  12.445 -0.0576 -0.2664 -0.4368
    1Sil     Oy 1357   2.477   3.200  10.070 -0.4935 -0.0933  0.3184
    1Sil     Oy 1358   1.943   3.436  10.093  0.3373 -0.4268 -0.7232
    1Sil     Oy 1359   1.808   3.441  12.462  0.2832  0.0056 -0.5385
    1Sil     Oy 1360   2.342   3.180  12.446  0.2255 -0.5288  0.0969
    1Sil     Oy 1361   2.478   3.705  10.051  0.0358  0.2642  0.1940
    1Sil     Oy 1362   1.935   3.936  10.072 -0.3276 -0.0713 -0.5266
    1Sil     Oy 1363   1.833   3.921  12.473 -0.1351 -0.3175  0.0005
    1Sil     Oy 1364   2.362   3.681  12.433  1.3371 -0.3159 -0.2432
    1Sil     Oy 1365   2.434   4.181  10.062 -0.4622 -0.3801 -0.0469
    1Sil     Oy 1366   1.915   4.431  10.099  0.1442 -0.6670  0.3869
    1Sil     Oy 1367   1.849   4.420  12.480  0.5378 -0.4295 -0.0849
    1Sil     Oy 1368   2.314   4.175  12.440 -0.1584 -0.4004 -0.0386
    1Sil     Oy 1369   2.480   4.689  10.073  0.1591 -0.7873  0.0585
    1Sil     Oy 1370   1.922   1.485  10.077 -0.2873 -0.0195 -0.4618
    1Sil     Oy 1371   1.844   1.477  12.486  0.1945  0.2751  0.6648
    1Sil     Oy 1372   2.351   4.684  12.443 -0.7950 -0.6373 -0.3989
    1Sil     Oy 1373  -0.029   1.724  10.056  0.0551 -0.7483 -0.2245
    1Sil     Oy 1374   2.751   1.973  10.095  0.1854  0.1704 -0.1223
    1Sil     Oy 1375   2.659   1.953  12.484  0.0587  0.2435  0.2717
    1Sil     Oy 1376  -0.142   1.718  12.439 -0.1699  0.1637 -0.0807
    1Sil     Oy 1377  -0.010   2.203  10.072 -0.2328  0.1249 -0.6216
    1Sil     Oy 1378   2.767   2.454  10.079  0.2077  0.0980  0.4196
    1Sil     Oy 1379   2.676   2.451  12.471  0.2572 -0.6910 -0.1581
    1Sil     Oy 1380  -0.141   2.221  12.436  0.4293 -0.2984  0.5334
    1Sil     Oy 1381  -0.023   2.710  10.055 -0.1022 -0.2365  0.5187
    1Sil     Oy 1382   2.733   2.952  10.099 -0.1443  0.4902 -0.2591
    1Sil     Oy 1383   2.649   2.957  12.465  0.1499  0.2647 -0.3120
    1Sil     Oy 1384  -0.152   2.707  12.434  0.6650  0.0828  0.0498
    1Sil     Oy 1385  -0.011   3.218  10.068 -0.2157  1.0177  0.4362
    1Sil     Oy 1386   2.773   3.480  10.092  0.3683  0.0507  0.2331
    1Sil     Oy 1387   2.674   3.433  12.481  0.2116  0.3023 -0.2225
    1Sil     Oy 1388  -0.157   3.208  12.454 -0.3156 -0.3035 -0.0183
    1Sil     Oy 1389  -0.025   3.690  10.065  0.3725  0.3898 -0.5387
    1Sil     Oy 1390   2.746   3.935  10.094 -0.1914  0.6050  0.5409
    1Sil     Oy 1391   2.659   3.920  12.485  0.4886 -0.2894 -0.4457
    1Sil     Oy 1392  -0.104   3.681  12.426 -0.3200 -0.1052  0.5531
    1Sil     Oy 1393  -0.034   4.237  10.058 -1.1223  0.5614  0.5897
    1Sil     Oy 1394   2.751   4.416  10.087 -0.7332 -0.1416  0.4030
    1Sil     Oy 1395   2.680   4.425  12.497  0.1901  0.5030 -1.0216
    1Sil     Oy 1396  -0.154   4.181  12.446 -0.0980  0.3903  0.6811
    1Sil     Oy 1397  -0.014   4.669  10.064  0.0581  0.0630 -0.4869
    1Sil     Oy 1398  -0.582   1.456  10.088  0.9020 -0.6075 -0.1540
    1Sil     Oy 1399   2.672   1.483  12.483 -0.5629 -0.5309 -0.4346
    1Sil     Oy 1400  -0.155   4.666  12.456  0.0178 -0.0217 -0.9457
    1Sil    Sib 1401   0.753   1.751  10.211 -0.0088  0.0761 -0.6730
    1Sil    Sib 1402   0.178   1.758  10.989  0.1538  0.2082  0.6078
    1Sil    Sib 1403   0.456   1.691  10.604  0.8268 -0.0199  0.3725
    1Sil    Sib 1404   0.017   2.000  10.645 -0.4472 -0.2214 -0.2980
    1Sil    Sib 1405   0.556   2.004  11.036  0.2534 -0.1082  0.0250
    1Sil    Sib 1406   0.311   1.945  10.226 -0.9201  0.4060  0.4381
    1Sil    Sib 1407   0.265   2.007  11.128 -0.0826 -0.4440  0.4768
    1Sil    Sib 1408   0.036   1.997  10.340 -0.4081  0.2898 -0.3260
    1Sil    Sib 1409   0.560   1.934  10.746 -0.0402  0.6997  0.1540
    1Sil    Sib 1410   0.183   1.749  10.704  0.2893 -0.2792  0.2203
    1Sil    Sib 1411   0.710   1.745  11.086 -0.2181  0.1034 -0.5164
    1Sil    Sib 1412   0.469   1.701  10.298  0.3563 -0.0284  0.2487
    1Sil    Sib 1413   0.710   1.749  11.388  0.0171 -0.0693  0.2791
    1Sil    Sib 1414   0.120   1.742  12.190 -0.2514  0.1106  0.2279
    1Sil    Sib 1415   0.419   1.689  11.783  0.3522  0.1221 -0.8328
    1Sil    Sib 1416  -0.026   1.987  11.828 -0.1377  0.0006 -0.0775
    1Sil    Sib 1417   0.490   1.981  12.238 -0.2901 -0.1118  0.1770
    1Sil    Sib 1418   0.254   1.940  11.423 -0.3809 -0.0657 -0.0951
    1Sil    Sib 1419   0.210   1.989  12.331  0.2687  0.5194  0.1537
    1Sil    Sib 1420  -0.031   1.989  11.527 -0.3876  0.1326  0.3726
    1Sil    Sib 1421   0.506   1.937  11.939 -0.0595  0.3589 -0.4521
    1Sil    Sib 1422   0.137   1.742  11.895 -0.1773  0.2486  0.0544
    1Sil    Sib 1423   0.662   1.749  12.308 -0.1667 -0.4381  0.0366
    1Sil    Sib 1424   0.423   1.695  11.484  0.3083  0.0235 -0.1677
    1Sil    Sib 1425   0.752   2.240  10.206  0.0668 -0.5746  0.2214
    1Sil    Sib 1426   0.163   2.252  10.993 -0.1587  0.1631 -0.1978
    1Sil    Sib 1427   0.457   2.176  10.599  0.3750  0.0299  0.5221
    1Sil    Sib 1428   0.012   2.490  10.645  0.1851 -0.1026 -0.4273
    1Sil    Sib 1429   0.555   2.486  11.034 -0.3403  0.4534  0.3006
    1Sil    Sib 1430   0.312   2.436  10.242  0.1846  0.1603  0.0144
    1Sil    Sib 1431   0.279   2.493  11.132  0.2429  0.0497 -0.4621
    1Sil    Sib 1432   0.035   2.489  10.338 -0.3816  0.1770 -0.5274
    1Sil    Sib 1433   0.575   2.425  10.737  0.3185 -0.3139  0.0584
    1Sil    Sib 1434   0.179   2.241  10.700  0.1906 -0.3622 -0.0402
    1Sil    Sib 1435   0.727   2.241  11.093 -0.0567 -0.4966  0.8080
    1Sil    Sib 1436   0.466   2.187  10.298 -0.0851 -0.4655  0.4851
    1Sil    Sib 1437   0.708   2.241  11.389  0.2341 -0.1956 -0.1287
    1Sil    Sib 1438   0.114   2.241  12.194 -0.1299  0.2349 -0.1832
    1Sil    Sib 1439   0.408   2.183  11.787  0.0392  0.2320 -0.1642
    1Sil    Sib 1440  -0.039   2.486  11.830  0.3746 -0.1996  0.3132
    1Sil    Sib 1441   0.505   2.473  12.225  0.8731 -0.0974  0.4612
    1Sil    Sib 1442   0.261   2.442  11.425  0.1089  0.0180  0.2208
    1Sil    Sib 1443   0.232   2.483  12.340  0.2874  0.2498 -0.3303
    1Sil    Sib 1444  -0.018   2.490  11.530 -0.0596  0.0781  0.4061
    1Sil    Sib 1445   0.517   2.424  11.926  0.5722  0.6517  0.1611
    1Sil    Sib 1446   0.128   2.238  11.893  0.6310 -0.1227  0.0789
    1Sil    Sib 1447   0.660   2.222  12.282  0.2411  0.0774  0.2394
    1Sil    Sib 1448   0.415   2.189  11.479  0.1492  0.4624  0.2793
    1Sil    Sib 1449   0.757   2.736  10.202  0.2342  0.3833 -0.0762
    1Sil    Sib 1450   0.168   2.735  10.995 -0.1515 -0.1908  0.3388
    1Sil    Sib 1451   0.460   2.670  10.585 -0.2146  0.4798 -0.1705
    1Sil    Sib 1452   0.021   2.980  10.636  0.3966  0.1229 -0.0469
    1Sil    Sib 1453   0.555   2.990  11.029  0.1352 -0.0644  0.3425
    1Sil    Sib 1454   0.313   2.920  10.239 -0.1340  0.3628  0.1268
    1Sil    Sib 1455   0.267   2.979  11.135 -0.0319  0.6022  0.3404
    1Sil    Sib 1456   0.031   2.981  10.334 -0.1167 -0.0807 -0.4542
    1Sil    Sib 1457   0.564   2.915  10.731 -0.0494  0.3459  0.1272
    1Sil    Sib 1458   0.181   2.733  10.695  0.2325  0.0007  0.5235
    1Sil    Sib 1459   0.715   2.731  11.096 -0.0480  0.2153  0.0395
    1Sil    Sib 1460   0.484   2.676  10.295  0.3500  0.0888  0.1480
    1Sil    Sib 1461   0.705   2.738  11.398  0.0069  0.0075  0.1451
    1Sil    Sib 1462   0.123   2.728  12.204  0.4871 -0.6994 -0.1966
    1Sil    Sib 1463   0.412   2.669  11.782 -0.0702 -0.3522  0.0145
    1Sil    Sib 1464  -0.036   2.973  11.842 -0.1722 -0.0148  0.1873
    1Sil    Sib 1465   0.500   2.975  12.212  0.0885 -0.2647  0.3642
    1Sil    Sib 1466   0.262   2.923  11.433  0.4570  0.0174 -0.1916
    1Sil    Sib 1467   0.229   2.979  12.338 -0.0663  0.0385  0.4850
    1Sil    Sib 1468  -0.018   2.984  11.537  0.2910  0.2045 -0.1026
    1Sil    Sib 1469   0.525   2.924  11.911 -0.4222  0.1521 -0.1863
    1Sil    Sib 1470   0.136   2.735  11.898  0.2743 -0.3805 -0.3479
    1Sil    Sib 1471   0.660   2.725  12.278  0.2614  0.2688  0.5753
    1Sil    Sib 1472   0.429   2.674  11.491 -0.3975 -0.2264 -0.2926
    1Sil    Sib 1473   0.741   3.233  10.197  0.0279  0.5581  0.3611
    1Sil    Sib 1474   0.170   3.222  11.001 -0.6611 -0.1239 -0.7977
    1Sil    Sib 1475   0.454   3.159  10.593  0.3302  0.1608  0.3630
    1Sil    Sib 1476   0.020   3.460  10.653 -0.0938 -0.0042  0.1380
    1Sil    Sib 1477   0.549   3.476  11.024 -0.0883 -0.2938  0.1121
    1Sil    Sib 1478   0.301   3.416  10.245  0.0008  0.0713  0.0493
    1Sil    Sib 1479   0.272   3.470  11.132  0.2401 -0.0713 -0.4807
    1Sil    Sib 1480   0.024   3.473  10.352  0.1254 -0.5664  0.0228
    1Sil    Sib 1481   0.570   3.415  10.721 -0.1333 -0.0426 -0.0434
    1Sil    Sib 1482   0.185   3.218  10.704  0.1489  0.0791  0.1528
    1Sil    Sib 1483   0.714   3.237  11.092  0.4490  0.6064 -0.2790
    1Sil    Sib 1484   0.470   3.174  10.292 -0.4328  0.2352  0.0198
    1Sil    Sib 1485   0.709   3.219  11.397  0.0954  0.3889 -0.1891
    1Sil    Sib 1486   0.108   3.222  12.207  0.2647 -0.0129 -0.2546
    1Sil    Sib 1487   0.399   3.163  11.794  0.3184 -0.3958 -0.1893
    1Sil    Sib 1488  -0.038   3.466  11.824 -0.1219 -0.1990  0.4699
    1Sil    Sib 1489   0.496   3.462  12.217  0.3036  0.2305 -0.5297
    1Sil    Sib 1490   0.264   3.407  11.422 -0.1673  0.2658 -0.2222
    1Sil    Sib 1491   0.221   3.466  12.333  0.0137  0.0257  0.1901
    1Sil    Sib 1492  -0.023   3.470  11.520 -0.1289 -0.3786  0.0198
    1Sil    Sib 1493   0.510   3.418  11.924 -0.0268  0.1702 -0.3612
    1Sil    Sib 1494   0.125   3.220  11.906 -0.0491  0.6721  0.3904
    1Sil    Sib 1495   0.667   3.221  12.272 -0.3372 -0.0640 -0.4068
    1Sil    Sib 1496   0.421   3.170  11.489  0.6274  0.3296 -0.5343
    1Sil    Sib 1497   0.747   3.724  10.203  0.0017  0.1605 -0.1768
    1Sil    Sib 1498   0.166   3.723  10.993  0.0983  0.8347 -0.0564
    1Sil    Sib 1499   0.451   3.669  10.592 -0.2260  0.2001  0.3264
    1Sil    Sib 1500   0.012   3.961  10.634 -0.0673  0.0531 -0.1306
    1Sil    Sib 1501   0.552   3.975  11.039  0.1544  0.2655  0.1569
    1Sil    Sib 1502   0.303   3.913  10.250  0.1108  0.2779  0.0206
    1Sil    Sib 1503   0.264   3.974  11.129  0.2496  0.3644  0.3045
    1Sil    Sib 1504   0.023   3.975  10.341  0.0698 -0.1362 -0.1210
    1Sil    Sib 1505   0.566   3.907  10.742  0.1350 -0.1407  0.0089
    1Sil    Sib 1506   0.176   3.705  10.697  0.0306  0.0029 -0.3634
    1Sil    Sib 1507   0.704   3.723  11.089  0.0922 -0.0867 -0.0613
    1Sil    Sib 1508   0.462   3.666  10.293 -0.3451 -0.1091 -0.6724
    1Sil    Sib 1509   0.688   3.720  11.394 -0.1492  0.0424  0.1865
    1Sil    Sib 1510   0.118   3.720  12.185  0.2860  0.0756 -0.1266
    1Sil    Sib 1511   0.406   3.668  11.779  0.1926  0.1689 -0.2508
    1Sil    Sib 1512  -0.038   3.962  11.836  0.3013 -0.5540 -0.2899
    1Sil    Sib 1513   0.497   3.962  12.231  0.0984 -0.3508 -0.1654
    1Sil    Sib 1514   0.249   3.917  11.430 -0.6117 -0.1523 -0.0507
    1Sil    Sib 1515   0.215   3.967  12.336  0.2131  0.3194 -0.3846
    1Sil    Sib 1516  -0.031   3.969  11.538  0.2013  0.0647 -0.1778
    1Sil    Sib 1517   0.510   3.905  11.930  0.0303 -0.4055 -0.0715
    1Sil    Sib 1518   0.129   3.718  11.886 -0.1090 -0.5570  0.0676
    1Sil    Sib 1519   0.661   3.708  12.294  0.4662 -0.2836  0.1893
    1Sil    Sib 1520   0.412   3.668  11.485 -0.4857 -0.2035  0.0208
    1Sil    Sib 1521   0.740   4.224  10.206 -0.3089 -0.2674 -0.1377
    1Sil    Sib 1522   0.161   4.218  11.000  0.2115 -0.1417 -0.1032
    1Sil    Sib 1523   0.454   4.151  10.596 -0.3618  0.7390 -0.3708
    1Sil    Sib 1524   0.015   4.457  10.652 -0.5687  0.0024  0.2790
    1Sil    Sib 1525   0.548   4.454  11.033 -0.3391  0.1674  0.1656
    1Sil    Sib 1526   0.301   4.414  10.244  0.0020  0.2115  0.0693
    1Sil    Sib 1527   0.267   4.466  11.138 -0.2101  0.6115  0.1724
    1Sil    Sib 1528   0.024   4.468  10.360  0.2685 -0.3872 -0.0360
    1Sil    Sib 1529   0.560   4.401  10.733 -0.1801  0.3020 -0.0219
    1Sil    Sib 1530   0.177   4.202  10.702 -0.4036 -0.3935  0.3776
    1Sil    Sib 1531   0.717   4.215  11.100 -0.4970 -0.0250 -0.0627
    1Sil    Sib 1532   0.463   4.169  10.300 -0.1773  0.2085  0.4642
    1Sil    Sib 1533   0.692   4.204  11.397  0.0725 -0.1326  0.1684
    1Sil    Sib 1534   0.104   4.218  12.209  0.1912  0.1007 -0.5425
    1Sil    Sib 1535   0.401   4.163  11.802  0.1856  0.1698 -0.0126
    1Sil    Sib 1536  -0.036   4.466  11.835 -0.0392 -0.0232  0.2034
    1Sil    Sib 1537   0.492   4.456  12.219 -0.6851 -0.1500  0.8441
    1Sil    Sib 1538   0.249   4.409  11.431 -0.0626 -0.2119  0.0590
    1Sil    Sib 1539   0.220   4.461  12.343 -0.1086 -0.0581  0.4916
    1Sil    Sib 1540  -0.025   4.461  11.543  0.1053  0.4889  0.4220
    1Sil    Sib 1541   0.505   4.400  11.928 -0.2451  0.0978  0.0391
    1Sil    Sib 1542   0.120   4.214  11.909  0.0152 -0.3196 -0.3942
    1Sil    Sib 1543   0.656   4.212  12.285  0.0289  0.4228  0.0048
    1Sil    Sib 1544   0.407   4.163  11.491  0.0203  0.1047 -0.0569
    1Sil    Sib 1545   0.748   4.705  10.217  0.0815  0.3519  0.0729
    1Sil    Sib 1546   0.178   4.718  11.002 -0.4074 -0.1884 -0.4994
    1Sil    Sib 1547   0.451   4.647  10.594  0.3689  0.0099 -0.1043
    1Sil    Sib 1548   0.018   1.499  10.638  0.5082 -0.1729  0.2595
    1Sil    Sib 1549   0.550   1.499  11.034  0.3653  0.2184 -0.0733
    1Sil    Sib 1550   0.308   1.448  10.241  0.0848 -0.1460 -0.2156
    1Sil    Sib 1551   0.277   1.513  11.141  0.2617  0.0434 -0.1676
    1Sil    Sib 1552   0.028   1.507  10.338 -0.0907  0.1897 -0.5266
    1Sil    Sib 1553   0.558   1.438  10.744 -0.1476  0.3589  0.4021
    1Sil    Sib 1554   0.179   4.711  10.702  0.3575 -0.3916  0.1346
    1Sil    Sib 1555   0.714   4.702  11.085  0.3347 -0.6670 -0.3242
    1Sil    Sib 1556   0.467   4.655  10.296  0.1211 -0.3244 -0.3377
    1Sil    Sib 1557   0.710   4.705  11.388  0.0995 -0.1063  0.0189
    1Sil    Sib 1558   0.106   4.704  12.193 -0.1223  0.1230 -0.1265
    1Sil    Sib 1559   0.411   4.653  11.788 -0.0116 -0.0246  0.6013
    1Sil    Sib 1560  -0.036   1.510  11.837  0.2016  0.1026  0.3687
    1Sil    Sib 1561   0.502   1.497  12.233 -0.5586 -0.1440  0.8155
    1Sil    Sib 1562   0.259   1.448  11.436  0.1513 -0.0842 -0.2505
    1Sil    Sib 1563   0.216   1.494  12.325 -0.2062 -0.3155 -0.0266
    1Sil    Sib 1564  -0.023   1.506  11.532  0.2186 -0.4697 -0.1201
    1Sil    Sib 1565   0.527   1.454  11.926 -0.1154 -0.2394  0.0923
    1Sil    Sib 1566   0.127   4.711  11.893  0.3388  0.3988 -0.0896
    1Sil    Sib 1567   0.648   4.698  12.287 -0.3998 -0.2223 -0.4181
    1Sil    Sib 1568   0.426   4.653  11.486  0.1102 -0.4351  0.0058
    1Sil    Sib 1569   1.582   1.760  10.220  0.7528  0.1180 -0.2762
    1Sil    Sib 1570   0.989   1.750  11.000 -0.4243  0.1911 -0.2378
    1Sil    Sib 1571   1.298   1.696  10.607 -0.3403 -0.0644 -0.2632
    1Sil    Sib 1572   0.840   1.986  10.649  0.2836  0.0345 -0.4387
    1Sil    Sib 1573   1.384   1.995  11.040  0.2151  0.0361 -0.2070
    1Sil    Sib 1574   1.151   1.959  10.250 -0.3519 -0.1867 -0.1557
    1Sil    Sib 1575   1.101   1.995  11.141 -0.2757  0.1808  0.3706
    1Sil    Sib 1576   0.866   1.991  10.351  0.4639  0.5664  0.1515
    1Sil    Sib 1577   1.401   1.947  10.747 -0.2596  0.3477  0.2130
    1Sil    Sib 1578   1.009   1.748  10.708 -0.4851 -0.4372 -0.1094
    1Sil    Sib 1579   1.541   1.753  11.098 -0.3858 -0.3810  0.1984
    1Sil    Sib 1580   1.303   1.706  10.307  0.1512  0.6128  0.0329
    1Sil    Sib 1581   1.531   1.757  11.400 -0.5409 -0.1273  0.4126
    1Sil    Sib 1582   0.929   1.747  12.196  0.0898  0.1677  0.1398
    1Sil    Sib 1583   1.245   1.689  11.796 -0.1664 -0.8374  0.1010
    1Sil    Sib 1584   0.790   2.000  11.836  0.1399  0.1450 -0.0185
    1Sil    Sib 1585   1.329   1.986  12.222 -0.1910  0.2353  0.0643
    1Sil    Sib 1586   1.095   1.942  11.436  0.0202 -0.2537 -0.0261
    1Sil    Sib 1587   1.052   1.995  12.329 -0.1063 -0.0014 -0.1929
    1Sil    Sib 1588   0.807   2.000  11.531 -0.0627  0.4007 -0.0663
    1Sil    Sib 1589   1.342   1.945  11.929  0.0338  0.1530 -0.0159
    1Sil    Sib 1590   0.960   1.750  11.892  0.3784 -0.1120  0.0930
    1Sil    Sib 1591   1.482   1.734  12.280  0.3914 -0.3747 -0.1331
    1Sil    Sib 1592   1.255   1.691  11.496 -0.1028 -0.3689 -0.2199
    1Sil    Sib 1593   1.585   2.243  10.205 -0.2537  0.6499  0.1918
    1Sil    Sib 1594   1.010   2.239  10.999  0.3347 -0.0254  0.5555
    1Sil    Sib 1595   1.290   2.188  10.612 -0.2064 -0.0252  0.1751
    1Sil    Sib 1596   0.850   2.480  10.645  0.0798 -0.0363 -0.3000
    1Sil    Sib 1597   1.394   2.490  11.039 -0.2464  0.2922  0.5770
    1Sil    Sib 1598   1.145   2.435  10.244  0.3402  0.2506  0.1164
    1Sil    Sib 1599   1.112   2.490  11.141  0.0536 -0.0954 -0.0025
    1Sil    Sib 1600   0.865   2.490  10.346  0.1040  0.1000  0.0044
    1Sil    Sib 1601   1.390   2.439  10.737 -0.1800  0.3170  0.2934
    1Sil    Sib 1602   1.008   2.230  10.702  0.7310 -0.1606  0.0697
    1Sil    Sib 1603   1.550   2.236  11.101 -0.2492  0.0632 -0.0434
    1Sil    Sib 1604   1.311   2.196  10.309 -0.3425 -0.0344  0.0163
    1Sil    Sib 1605   1.539   2.234  11.404 -0.0566  0.1828 -0.2800
    1Sil    Sib 1606   0.940   2.237  12.196 -0.0002 -0.3377 -0.4421
    1Sil    Sib 1607   1.239   2.188  11.789  0.7441  0.1730  0.1394
    1Sil    Sib 1608   0.790   2.494  11.827 -0.1849  0.4412 -0.5488
    1Sil    Sib 1609   1.332   2.478  12.223  0.2076  0.0917 -0.1409
    1Sil    Sib 1610   1.096   2.425  11.431 -0.3165 -0.2903  0.4721
    1Sil    Sib 1611   1.052   2.488  12.330 -0.1766  0.1663  0.1745
    1Sil    Sib 1612   0.813   2.490  11.524 -0.3750  0.2092  0.2948
    1Sil    Sib 1613   1.348   2.433  11.923  0.0849 -0.2042  0.2257
    1Sil    Sib 1614   0.956   2.250  11.887  0.2279  0.2225 -0.5626
    1Sil    Sib 1615   1.486   2.225  12.289 -0.2009 -0.0256  0.2128
    1Sil    Sib 1616   1.263   2.179  11.494 -0.4057 -0.4220 -0.0382
    1Sil    Sib 1617   1.581   2.747  10.196 -0.5890  0.7216 -0.3258
    1Sil    Sib 1618   0.997   2.731  10.995 -0.2564  0.5084  0.4627
    1Sil    Sib 1619   1.282   2.681  10.597 -0.5443  0.2299  0.0800
    1Sil    Sib 1620   0.853   2.971  10.638 -0.2189 -0.2557  0.2808
    1Sil    Sib 1621   1.379   2.981  11.025 -0.1155  0.3053 -0.2369
    1Sil    Sib 1622   1.146   2.945  10.239 -0.1092  0.1000 -0.6033
    1Sil    Sib 1623   1.102   2.980  11.136  0.0285  0.1630  0.1568
    1Sil    Sib 1624   0.861   2.987  10.328  0.2209  0.3987 -0.3438
    1Sil    Sib 1625   1.404   2.930  10.732 -0.0761  0.1247 -0.4058
    1Sil    Sib 1626   1.004   2.726  10.694  0.1756 -0.0983 -0.7788
    1Sil    Sib 1627   1.553   2.744  11.094  0.2462 -0.4719  0.3341
    1Sil    Sib 1628   1.303   2.689  10.288  0.1881  0.0217 -0.4937
    1Sil    Sib 1629   1.528   2.733  11.387  0.0987 -0.4399 -0.1964
    1Sil    Sib 1630   0.947   2.734  12.190 -0.0247  0.3271  0.0135
    1Sil    Sib 1631   1.241   2.682  11.780 -0.1119  0.5845 -0.0908
    1Sil    Sib 1632   0.802   2.992  11.823 -0.3294  0.2723 -0.4198
    1Sil    Sib 1633   1.328   2.967  12.223  0.1477  0.3413 -0.2211
    1Sil    Sib 1634   1.084   2.915  11.426 -0.4267 -0.4230 -0.3086
    1Sil    Sib 1635   1.047   2.974  12.338 -0.2786  0.0053  0.3160
    1Sil    Sib 1636   0.811   2.980  11.531 -0.0854  0.2776 -0.0097
    1Sil    Sib 1637   1.338   2.929  11.920  0.0321  0.1525 -0.2301
    1Sil    Sib 1638   0.954   2.737  11.885  0.2940 -0.5733 -0.1802
    1Sil    Sib 1639   1.487   2.725  12.300  0.0117 -0.0002  0.0763
    1Sil    Sib 1640   1.257   2.673  11.485  0.2028  0.0685 -0.0205
    1Sil    Sib 1641   1.588   3.239  10.196 -0.2929 -0.1902 -0.5565
    1Sil    Sib 1642   0.993   3.233  10.999 -0.3820  0.1589 -0.3809
    1Sil    Sib 1643   1.292   3.173  10.587  0.0388 -0.0460 -0.8274
    1Sil    Sib 1644   0.841   3.467  10.629 -0.5128  0.8485  0.0840
    1Sil    Sib 1645   1.376   3.479  11.031 -0.0308 -0.1330 -0.3260
    1Sil    Sib 1646   1.136   3.433  10.250  0.0820 -0.7842  0.1231
    1Sil    Sib 1647   1.094   3.478  11.135 -0.4146 -0.2977  0.0759
    1Sil    Sib 1648   0.858   3.478  10.339 -0.0549  0.2774  0.0252
    1Sil    Sib 1649   1.390   3.420  10.728 -0.0537 -0.3343  0.2570
    1Sil    Sib 1650   1.009   3.220  10.693 -0.1124  0.1946  0.3317
    1Sil    Sib 1651   1.536   3.234  11.093 -0.1273 -0.0225 -0.1941
    1Sil    Sib 1652   1.305   3.189  10.298 -0.1633  0.1185  0.0406
    1Sil    Sib 1653   1.524   3.233  11.392 -0.2506  0.3118  0.2535
    1Sil    Sib 1654   0.959   3.214  12.194  0.2725 -0.2369 -0.1925
    1Sil    Sib 1655   1.238   3.172  11.782  0.4962  0.6808 -0.4364
    1Sil    Sib 1656   0.798   3.471  11.834 -0.1715  0.1063 -0.0040
    1Sil    Sib 1657   1.340   3.471  12.233  0.0569  0.2363 -0.0829
    1Sil    Sib 1658   1.082   3.422  11.429  0.1004 -0.1449 -0.1682
    1Sil    Sib 1659   1.065   3.471  12.316 -0.1030 -0.0265  0.0807
    1Sil    Sib 1660   0.803   3.469  11.535 -0.2368  0.0852 -0.1337
    1Sil    Sib 1661   1.348   3.413  11.930  0.4924  0.0370  0.0505
    1Sil    Sib 1662   0.966   3.226  11.889  0.2214  0.2452 -0.1993
    1Sil    Sib 1663   1.493   3.218  12.286 -0.2511 -0.0689 -0.1202
    1Sil    Sib 1664   1.237   3.165  11.484 -0.4792  0.2722 -0.3515
    1Sil    Sib 1665   1.581   3.728  10.201  0.1504 -0.7108  0.0735
    1Sil    Sib 1666   0.995   3.728  11.001  0.1079 -0.2536 -0.1212
    1Sil    Sib 1667   1.282   3.671  10.597 -0.4023 -0.0621 -0.0353
    1Sil    Sib 1668   0.845   3.970  10.644 -0.3711  0.2380  0.1433
    1Sil    Sib 1669   1.378   3.974  11.037  0.4386  0.2315 -0.6910
    1Sil    Sib 1670   1.132   3.926  10.244 -0.2217 -0.0544 -0.0742
    1Sil    Sib 1671   1.097   3.969  11.140  0.2706 -0.8007 -0.6261
    1Sil    Sib 1672   0.849   3.972  10.345  0.0613  0.1593  0.4136
    1Sil    Sib 1673   1.402   3.913  10.738 -0.0923 -0.3495 -0.6644
    1Sil    Sib 1674   1.004   3.715  10.702 -0.2193 -0.0765  0.0838
    1Sil    Sib 1675   1.541   3.716  11.098  0.4064 -0.0808  0.0787
    1Sil    Sib 1676   1.301   3.676  10.303 -0.0137  0.5408  0.2411
    1Sil    Sib 1677   1.535   3.725  11.399  0.3547  0.0518 -0.2958
    1Sil    Sib 1678   0.944   3.722  12.205  0.1049  0.4528  0.3387
    1Sil    Sib 1679   1.242   3.660  11.798 -0.1516 -0.1013 -0.0960
    1Sil    Sib 1680   0.799   3.955  11.838  0.6426  0.7455  0.1390
    1Sil    Sib 1681   1.340   3.962  12.224  0.4380  0.0299  0.3440
    1Sil    Sib 1682   1.082   3.911  11.432 -0.3323  0.3829  0.1188
    1Sil    Sib 1683   1.062   3.976  12.333  0.0366  0.6770  0.4233
    1Sil    Sib 1684   0.801   3.963  11.535 -0.1197  0.1039  0.2901
    1Sil    Sib 1685   1.342   3.895  11.929 -0.4147 -0.0699  0.3837
    1Sil    Sib 1686   0.966   3.710  11.904 -0.4327  0.3343  0.3550
    1Sil    Sib 1687   1.495   3.720  12.301  0.0872 -0.0652 -0.2474
    1Sil    Sib 1688   1.250   3.668  11.503  0.2405 -0.0568 -0.3601
    1Sil    Sib 1689   1.567   4.219  10.209  0.2545  0.3446  0.6072
    1Sil    Sib 1690   0.997   4.211  10.999 -0.6902  0.2553  0.3678
    1Sil    Sib 1691   1.289   4.159  10.610  0.3992 -0.1333  0.4178
    1Sil    Sib 1692   0.848   4.462  10.653 -0.0390 -0.2578 -0.2705
    1Sil    Sib 1693   1.385   4.472  11.041  0.2676 -0.1372  0.3330
    1Sil    Sib 1694   1.129   4.408  10.242 -0.2200  0.2513  0.0430
    1Sil    Sib 1695   1.099   4.453  11.134 -0.3678  0.1254 -0.0211
    1Sil    Sib 1696   0.856   4.459  10.351 -0.2622  0.2498 -0.0988
    1Sil    Sib 1697   1.390   4.410  10.753 -0.4169  0.0606 -0.3452
    1Sil    Sib 1698   1.011   4.205  10.695 -0.1434 -0.0966 -0.2955
    1Sil    Sib 1699   1.544   4.213  11.103 -0.3986  0.3461  0.3564
    1Sil    Sib 1700   1.298   4.171  10.309 -0.0413 -0.3901  0.9651
    1Sil    Sib 1701   1.528   4.211  11.401  0.0865  0.6505  0.2223
    1Sil    Sib 1702   0.938   4.221  12.208  0.3078 -0.0580  0.1943
    1Sil    Sib 1703   1.234   4.145  11.795 -0.1571  0.7645  0.4096
    1Sil    Sib 1704   0.788   4.443  11.836 -0.0513  0.3380 -0.1193
    1Sil    Sib 1705   1.329   4.456  12.228 -0.2305  0.0866 -0.1727
    1Sil    Sib 1706   1.084   4.391  11.432 -0.1854 -0.0706 -0.2162
    1Sil    Sib 1707   1.058   4.459  12.350 -0.0486 -0.0255  0.1334
    1Sil    Sib 1708   0.807   4.452  11.534  0.2392 -0.3552  0.0943
    1Sil    Sib 1709   1.351   4.395  11.929  0.1866 -0.3453 -0.1142
    1Sil    Sib 1710   0.952   4.204  11.908  0.2223 -0.0259 -0.2513
    1Sil    Sib 1711   1.495   4.218  12.285  0.5394  0.1096  0.5297
    1Sil    Sib 1712   1.244   4.155  11.492  0.0264 -0.3468 -0.6476
    1Sil    Sib 1713   1.580   4.712  10.219  0.4079 -0.3514 -0.3486
    1Sil    Sib 1714   0.998   4.705  10.994  0.0241 -0.2377 -0.1756
    1Sil    Sib 1715   1.303   4.656  10.608  0.2996  0.1795 -0.3689
    1Sil    Sib 1716   0.846   1.493  10.653 -0.1845 -0.3444  0.1925
    1Sil    Sib 1717   1.382   1.519  11.033 -0.0653 -0.0933 -0.2194
    1Sil    Sib 1718   1.132   1.463  10.238  0.0810 -0.1011 -0.2872
    1Sil    Sib 1719   1.099   1.505  11.130 -0.0179  0.0259 -0.4477
    1Sil    Sib 1720   0.852   1.504  10.347 -0.1633  0.1022 -0.2315
    1Sil    Sib 1721   1.407   1.449  10.743  0.2213 -0.1100 -0.1171
    1Sil    Sib 1722   1.021   4.699  10.702 -0.4879 -0.1270  0.0012
    1Sil    Sib 1723   1.547   4.720  11.104  0.6898  0.3908  0.3590
    1Sil    Sib 1724   1.298   4.660  10.306 -0.4227 -0.2656  0.0187
    1Sil    Sib 1725   1.541   4.698  11.396 -0.1602 -0.6818  0.3471
    1Sil    Sib 1726   0.948   4.699  12.201 -0.2665  0.0185  0.2694
    1Sil    Sib 1727   1.235   4.636  11.788  0.2988 -0.3798  0.1519
    1Sil    Sib 1728   0.806   1.495  11.830 -0.1026  0.1947 -0.0372
    1Sil    Sib 1729   1.320   1.486  12.229 -0.3465 -0.0786  0.2949
    1Sil    Sib 1730   1.094   1.442  11.429 -0.1199 -0.2630  0.0360
    1Sil    Sib 1731   1.037   1.502  12.328 -0.5270 -0.0995 -0.0395
    1Sil    Sib 1732   0.816   1.501  11.532 -0.3522  0.0426  0.0656
    1Sil    Sib 1733   1.333   1.435  11.931 -0.2134  0.4858 -0.5014
    1Sil    Sib 1734   0.961   4.688  11.897 -0.2284 -0.3347  0.2931
    1Sil    Sib 1735   1.484   4.691  12.293 -0.0287  0.3624  0.0690
    1Sil    Sib 1736   1.255   4.640  11.488 -0.3236  0.0264 -0.0023
    1Sil    Sib 1737   2.410   1.763  10.215 -0.1417  0.3167  0.3198
    1Sil    Sib 1738   1.827   1.754  11.008 -0.1555  0.0398  0.5906
    1Sil    Sib 1739   2.131   1.692  10.611 -0.1580 -0.1893  0.7631
    1Sil    Sib 1740   1.682   2.000  10.649  0.2316 -0.1655 -0.1551
    1Sil    Sib 1741   2.218   1.993  11.044 -0.0944 -0.0784 -0.2550
    1Sil    Sib 1742   1.963   1.927  10.257  0.3639 -0.0949 -0.0943
    1Sil    Sib 1743   1.931   2.010  11.137  0.0773 -0.6123 -0.2050
    1Sil    Sib 1744   1.687   2.006  10.351 -0.2821 -0.3763 -0.1410
    1Sil    Sib 1745   2.234   1.940  10.747  0.1450 -0.2624 -0.3648
    1Sil    Sib 1746   1.848   1.755  10.707  0.1410 -0.2951  0.3661
    1Sil    Sib 1747   2.377   1.744  11.101  0.0147 -0.2868 -0.1086
    1Sil    Sib 1748   2.134   1.690  10.317 -0.2489  0.2844 -0.0243
    1Sil    Sib 1749   2.371   1.741  11.401 -0.1054  0.1813  0.0421
    1Sil    Sib 1750   1.775   1.732  12.190 -0.1165 -0.3265 -0.0733
    1Sil    Sib 1751   2.068   1.698  11.793 -0.1371 -0.0398 -0.4210
    1Sil    Sib 1752   1.626   2.000  11.840  0.2894  0.3775  0.3309
    1Sil    Sib 1753   2.152   1.992  12.231 -0.1873 -0.5157 -0.3010
    1Sil    Sib 1754   1.919   1.950  11.434  0.3322  0.0644 -0.0020
    1Sil    Sib 1755   1.871   1.986  12.328  0.5592 -0.0589  0.0409
    1Sil    Sib 1756   1.644   1.994  11.539  0.0734 -0.0925  1.1462
    1Sil    Sib 1757   2.167   1.943  11.932  0.2638  0.0647 -0.3129
    1Sil    Sib 1758   1.784   1.745  11.889  0.4978  0.0648  0.5062
    1Sil    Sib 1759   2.315   1.748  12.289 -0.0671 -0.0871  0.3200
    1Sil    Sib 1760   2.076   1.697  11.493  0.2027 -0.4330 -0.2182
    1Sil    Sib 1761   2.399   2.238  10.202  0.2350 -0.0185  0.0504
    1Sil    Sib 1762   1.828   2.249  10.998  0.0167 -0.0259 -0.6221
    1Sil    Sib 1763   2.126   2.191  10.602 -0.0490 -0.0221 -0.6418
    1Sil    Sib 1764   1.679   2.488  10.633  0.4899  0.1690 -0.1586
    1Sil    Sib 1765   2.211   2.495  11.028 -0.6059 -0.1145 -0.4798
    1Sil    Sib 1766   1.961   2.429  10.240 -0.4406  0.6918  0.2546
    1Sil    Sib 1767   1.933   2.493  11.128  0.6394 -0.2580 -0.1964
    1Sil    Sib 1768   1.681   2.499  10.331 -0.0607  0.6795 -0.0820
    1Sil    Sib 1769   2.223   2.437  10.729 -0.2570 -0.3943  0.0740
    1Sil    Sib 1770   1.843   2.250  10.698 -0.1768 -0.1039 -0.3805
    1Sil    Sib 1771   2.371   2.242  11.091 -0.2737  0.5708  0.2436
    1Sil    Sib 1772   2.123   2.178  10.305 -0.1073 -0.0355 -0.2246
    1Sil    Sib 1773   2.358   2.242  11.395 -0.6383  0.4051  0.1772
    1Sil    Sib 1774   1.771   2.238  12.208  0.2376 -0.5066 -0.1351
    1Sil    Sib 1775   2.056   2.183  11.798 -0.1331 -0.3953  0.1295
    1Sil    Sib 1776   1.626   2.494  11.832  0.1766  0.0184 -0.4794
    1Sil    Sib 1777   2.161   2.483  12.235 -0.0288 -0.2352  0.2820
    1Sil    Sib 1778   1.923   2.434  11.436  0.1713  0.1729 -0.1382
    1Sil    Sib 1779   1.881   2.484  12.341  0.2282 -0.1606 -0.2055
    1Sil    Sib 1780   1.648   2.494  11.530 -0.5050 -0.2685  0.1268
    1Sil    Sib 1781   2.167   2.431  11.942  0.0147  0.2488  0.0715
    1Sil    Sib 1782   1.787   2.253  11.897  0.4777 -0.3030  0.4569
    1Sil    Sib 1783   2.320   2.232  12.306  0.1297  0.0246  0.2326
    1Sil    Sib 1784   2.077   2.192  11.495 -0.0458 -0.3187 -0.2944
    1Sil    Sib 1785   2.403   2.732  10.206 -0.0745  0.1083  0.0365
    1Sil    Sib 1786   1.832   2.739  10.986  0.6055  0.4493  0.1346
    1Sil    Sib 1787   2.117   2.678  10.592  0.1170 -0.1724  0.0280
    1Sil    Sib 1788   1.669   2.987  10.638 -0.4477  0.2840 -0.3420
    1Sil    Sib 1789   2.212   2.976  11.035  0.0717  0.1437  0.0798
    1Sil    Sib 1790   1.963   2.932  10.242  0.3666  0.6221 -0.0754
    1Sil    Sib 1791   1.926   2.979  11.136 -0.0785 -0.0374  0.1302
    1Sil    Sib 1792   1.687   2.984  10.337  0.0794 -0.8779 -0.7413
    1Sil    Sib 1793   2.219   2.920  10.738  0.4724  0.1116 -0.1360
    1Sil    Sib 1794   1.835   2.737  10.686 -0.5530 -0.1230  0.2212
    1Sil    Sib 1795   2.381   2.738  11.091 -0.0049 -0.3546  0.1283
    1Sil    Sib 1796   2.120   2.679  10.293 -0.1594  0.3988  0.8807
    1Sil    Sib 1797   2.356   2.735  11.387 -0.3376 -0.1356 -0.2481
    1Sil    Sib 1798   1.774   2.729  12.196 -0.2639 -0.1400  0.5126
    1Sil    Sib 1799   2.069   2.679  11.795 -0.2072  0.4338 -0.1608
    1Sil    Sib 1800   1.625   2.986  11.823 -0.3058 -0.3293 -0.1440
    1Sil    Sib 1801   2.160   2.972  12.220  0.1843 -0.2598 -0.1692
    1Sil    Sib 1802   1.909   2.918  11.431  0.6160 -0.1303  0.2244
    1Sil    Sib 1803   1.880   2.984  12.317  0.0223 -0.1567 -0.0321
    1Sil    Sib 1804   1.623   2.985  11.526  0.6262  0.2811 -0.1356
    1Sil    Sib 1805   2.179   2.920  11.926  0.0525  0.1880 -0.2796
    1Sil    Sib 1806   1.788   2.739  11.900 -0.1694 -0.0386 -0.0562
    1Sil    Sib 1807   2.319   2.735  12.292  0.2062  0.1902 -0.3331
    1Sil    Sib 1808   2.080   2.677  11.488  0.1763  0.1231 -0.3355
    1Sil    Sib 1809   2.418   3.226  10.211  0.6783  0.0390  0.5008
    1Sil    Sib 1810   1.827   3.231  11.001  0.1152 -0.0524  0.2014
    1Sil    Sib 1811   2.120   3.180  10.613 -0.2106 -0.0094 -0.2264
    1Sil    Sib 1812   1.671   3.480  10.629 -0.3404  0.0695 -0.2115
    1Sil    Sib 1813   2.209   3.477  11.030 -0.3583 -0.0606  0.2442
    1Sil    Sib 1814   1.973   3.423  10.249 -0.2001  0.1102  0.0080
    1Sil    Sib 1815   1.928   3.475  11.142 -0.0277  0.3246 -0.0696
    1Sil    Sib 1816   1.696   3.487  10.339 -0.0577  0.0124  0.4094
    1Sil    Sib 1817   2.234   3.424  10.738  0.3225  0.3891 -0.2298
    1Sil    Sib 1818   1.832   3.231  10.697 -0.0364  0.2331  0.2375
    1Sil    Sib 1819   2.370   3.224  11.090 -0.0626  0.2099  0.1413
    1Sil    Sib 1820   2.127   3.176  10.303  0.1193 -0.1755  0.2112
    1Sil    Sib 1821   2.354   3.223  11.396 -0.0119 -0.2606 -0.0289
    1Sil    Sib 1822   1.774   3.236  12.178  0.2688  0.4534  0.0048
    1Sil    Sib 1823   2.069   3.159  11.791  0.0994 -0.2181  0.2845
    1Sil    Sib 1824   1.628   3.474  11.828 -0.1383  0.2479 -0.0751
    1Sil    Sib 1825   2.163   3.453  12.233  0.1613 -0.2440 -0.1202
    1Sil    Sib 1826   1.927   3.413  11.442 -0.1488  0.0012 -0.0424
    1Sil    Sib 1827   1.885   3.470  12.325  0.1193  0.2031  0.1172
    1Sil    Sib 1828   1.643   3.475  11.531 -0.1720 -0.5116 -0.1437
    1Sil    Sib 1829   2.177   3.400  11.939  0.0524 -0.1775  0.0834
    1Sil    Sib 1830   1.793   3.222  11.880 -0.0665 -0.6388  0.0189
    1Sil    Sib 1831   2.325   3.210  12.291  0.0178  0.2947  0.2720
    1Sil    Sib 1832   2.077   3.161  11.496 -0.1915 -0.3674  0.0748
    1Sil    Sib 1833   2.418   3.727  10.200 -0.1683  0.2022 -0.1047
    1Sil    Sib 1834   1.817   3.719  10.999 -0.1190  0.0608 -0.2546
    1Sil    Sib 1835   2.116   3.659  10.604 -0.0312 -0.0274 -0.0018
    1Sil    Sib 1836   1.679   3.963  10.632  0.0967  0.0490  0.1742
    1Sil    Sib 1837   2.196   3.967  11.051  0.3473 -0.5907  0.6501
    1Sil    Sib 1838   1.963   3.911  10.226  0.1754 -0.2997  0.1230
    1Sil    Sib 1839   1.913   3.959  11.147  0.0274 -0.1339  0.3626
    1Sil    Sib 1840   1.686   3.978  10.340  0.8045  0.0150 -0.1562
    1Sil    Sib 1841   2.220   3.908  10.752  0.4777 -0.5433  0.0950
    1Sil    Sib 1842   1.838   3.718  10.703  0.0357 -0.1319  0.1155
    1Sil    Sib 1843   2.368   3.726  11.102 -0.4255  0.4101 -0.0068
    1Sil    Sib 1844   2.139   3.668  10.294 -0.4997  0.2766 -0.0452
    1Sil    Sib 1845   2.364   3.718  11.404  0.5980 -0.0948 -0.2925
    1Sil    Sib 1846   1.769   3.702  12.198  0.0011 -0.1423 -0.2334
    1Sil    Sib 1847   2.074   3.652  11.801  0.2136  0.1673 -0.5601
    1Sil    Sib 1848   1.629   3.962  11.849  0.2157  0.2900  0.1937
    1Sil    Sib 1849   2.161   3.957  12.231 -0.2331 -0.1994  0.2616
    1Sil    Sib 1850   1.909   3.904  11.444 -0.1456 -0.5007 -0.0536
    1Sil    Sib 1851   1.879   3.957  12.329 -0.0044  0.1470  0.1860
    1Sil    Sib 1852   1.640   3.970  11.545  0.2945  0.0552  0.0450
    1Sil    Sib 1853   2.178   3.897  11.940  0.0835 -0.3988  0.3972
    1Sil    Sib 1854   1.790   3.711  11.901 -0.1602 -0.0953  0.1025
    1Sil    Sib 1855   2.322   3.710  12.285 -0.3502 -0.4921 -0.5121
    1Sil    Sib 1856   2.084   3.661  11.505  0.1639  0.0410 -0.1483
    1Sil    Sib 1857   2.399   4.224  10.208  0.2883  0.0773  0.0626
    1Sil    Sib 1858   1.822   4.211  10.999 -0.0817  0.1946  0.1985
    1Sil    Sib 1859   2.115   4.161  10.607  0.0187  0.7978  0.0147
    1Sil    Sib 1860   1.669   4.458  10.646  0.4050  0.6255 -0.1943
    1Sil    Sib 1861   2.205   4.466  11.033  0.1567  0.0338 -0.2522
    1Sil    Sib 1862   1.959   4.412  10.251  0.2096  0.3422  0.2640
    1Sil    Sib 1863   1.923   4.458  11.136  0.0936  0.0486  0.1321
    1Sil    Sib 1864   1.676   4.461  10.357 -0.2521 -0.5933 -0.5616
    1Sil    Sib 1865   2.222   4.415  10.734  0.8184  0.3757  0.1415
    1Sil    Sib 1866   1.830   4.209  10.701  0.4678  0.1618 -0.2491
    1Sil    Sib 1867   2.371   4.212  11.102  0.1794  0.0567  0.4228
    1Sil    Sib 1868   2.126   4.164  10.303  0.1732 -0.2755  0.2455
    1Sil    Sib 1869   2.356   4.200  11.398 -0.1197  0.2492  0.4273
    1Sil    Sib 1870   1.784   4.207  12.199  0.4653 -0.4828  0.4276
    1Sil    Sib 1871   2.071   4.147  11.800  0.7708 -0.3032  0.3477
    1Sil    Sib 1872   1.633   4.448  11.828 -0.2919 -0.2518  0.2495
    1Sil    Sib 1873   2.167   4.457  12.223  0.4385  0.4446  0.1880
    1Sil    Sib 1874   1.909   4.390  11.426 -0.2690  0.2197 -0.2381
    1Sil    Sib 1875   1.889   4.452  12.329  0.3528  0.0485 -0.1726
    1Sil    Sib 1876   1.642   4.454  11.531  0.2476 -0.0614  0.7065
    1Sil    Sib 1877   2.176   4.399  11.935  0.2749 -0.3570 -0.5859
    1Sil    Sib 1878   1.793   4.203  11.898  0.5880  0.3805 -0.3879
    1Sil    Sib 1879   2.314   4.203  12.285 -0.0224 -0.4412  0.3632
    1Sil    Sib 1880   2.075   4.147  11.500  0.1005  0.0372  0.2507
    1Sil    Sib 1881   2.412   4.707  10.220 -0.2486  0.4590 -0.0906
    1Sil    Sib 1882   1.829   4.714  10.994  0.0630  0.2187 -0.2141
    1Sil    Sib 1883   2.121   4.652  10.591 -0.0650 -0.3026 -0.3872
    1Sil    Sib 1884   1.687   1.506  10.653  0.0710  0.0954  0.3725
    1Sil    Sib 1885   2.221   1.498  11.042 -0.1750 -0.4579 -0.1098
    1Sil    Sib 1886   1.969   1.448  10.231  0.1947 -0.5476  0.6507
    1Sil    Sib 1887   1.931   1.508  11.140 -0.4109  0.6396 -0.0435
    1Sil    Sib 1888   1.694   1.510  10.353 -0.1172  0.2367  0.1235
    1Sil    Sib 1889   2.234   1.451  10.739  0.1298  0.2799 -0.2476
    1Sil    Sib 1890   1.843   4.698  10.696  0.4023  0.2094 -0.4859
    1Sil    Sib 1891   2.369   4.707  11.102  0.0135 -0.0601 -0.1226
    1Sil    Sib 1892   2.131   4.650  10.296  0.2132 -0.1940 -0.3454
    1Sil    Sib 1893   2.357   4.691  11.404  0.0243 -0.0802 -0.4965
    1Sil    Sib 1894   1.771   4.699  12.208  0.0524  0.1265  0.2919
    1Sil    Sib 1895   2.065   4.637  11.791 -0.1157 -0.1019  0.3589
    1Sil    Sib 1896   1.621   1.499  11.835 -0.0315  0.0731  0.4808
    1Sil    Sib 1897   2.164   1.500  12.220 -0.1310  0.4023 -0.3683
    1Sil    Sib 1898   1.917   1.444  11.438 -0.2536 -0.1695  0.4592
    1Sil    Sib 1899   1.883   1.496  12.334  0.6250  0.3471  0.0131
    1Sil    Sib 1900   1.639   1.501  11.532 -0.0620  0.3734 -0.3989
    1Sil    Sib 1901   2.169   1.444  11.925 -0.6206 -0.4893 -0.1869
    1Sil    Sib 1902   1.789   4.697  11.904  0.0021 -0.0686 -0.0798
    1Sil    Sib 1903   2.320   4.704  12.290  0.0183 -0.2262  0.3679
    1Sil    Sib 1904   2.073   4.639  11.497 -0.4233 -0.2188  0.0844
    1Sil    Sib 1905  -0.080   1.752  10.201  0.0179 -0.2737  0.1065
    1Sil    Sib 1906   2.663   1.764  10.994  0.6335  0.3389 -0.3798
    1Sil    Sib 1907  -0.366   1.697  10.596 -0.7435 -0.2330 -0.3242
    1Sil    Sib 1908   2.510   1.996  10.644  0.4806  0.5489 -0.0048
    1Sil    Sib 1909   3.048   1.996  11.031  0.2028  0.4207 -0.1302
    1Sil    Sib 1910   2.793   1.954  10.244 -0.0823 -0.4142  0.1005
    1Sil    Sib 1911   2.769   2.015  11.137 -0.0243 -0.1742 -0.1969
    1Sil    Sib 1912   2.515   2.007  10.343  0.0594  0.0269  0.0426
    1Sil    Sib 1913  -0.267   1.943  10.740  0.3452 -0.3560 -0.1646
    1Sil    Sib 1914   2.671   1.751  10.691  0.1942 -0.0890 -0.6611
    1Sil    Sib 1915  -0.107   1.753  11.089  0.3274  0.6641 -0.3543
    1Sil    Sib 1916  -0.361   1.697  10.296 -0.2577 -0.1733  0.1652
    1Sil    Sib 1917  -0.128   1.754  11.385 -0.6748  0.4265  0.3994
    1Sil    Sib 1918   2.603   1.746  12.198 -0.4784 -0.0411  0.2477
    1Sil    Sib 1919  -0.428   1.699  11.793 -0.2127  0.2203 -0.0614
    1Sil    Sib 1920   2.451   2.001  11.842 -0.2628  0.0949  0.3157
    1Sil    Sib 1921   2.986   1.989  12.225  0.2433 -0.4871 -0.6244
    1Sil    Sib 1922   2.746   1.948  11.420 -0.1560  0.1225  0.0637
    1Sil    Sib 1923   2.711   1.987  12.333 -0.0392  0.3421  0.4497
    1Sil    Sib 1924   2.470   2.000  11.535 -0.3034  0.1137  0.1375
    1Sil    Sib 1925  -0.318   1.936  11.933  0.3321 -0.0806  0.3120
    1Sil    Sib 1926   2.610   1.750  11.895  0.0388  0.4100  0.0411
    1Sil    Sib 1927  -0.164   1.743  12.283  0.1659  0.2740  0.2708
    1Sil    Sib 1928  -0.408   1.702  11.497  0.0857 -0.0986  0.1892
    1Sil    Sib 1929  -0.070   2.240  10.212 -0.0487  0.2110  0.0416
    1Sil    Sib 1930   2.655   2.256  10.997 -0.7937 -0.2282 -0.1894
    1Sil    Sib 1931  -0.360   2.188  10.595  0.4681  0.1604  0.3619
    1Sil    Sib 1932   2.503   2.489  10.631 -0.4597  0.1809  0.1247
    1Sil    Sib 1933   3.038   2.490  11.035 -0.3344  0.1112  0.2161
    1Sil    Sib 1934   2.800   2.434  10.238 -0.9385 -0.0335  0.3629
    1Sil    Sib 1935   2.759   2.495  11.128 -0.2677 -0.4176  0.4851
    1Sil    Sib 1936   2.517   2.484  10.330  0.5438 -0.0352 -0.1840
    1Sil    Sib 1937  -0.262   2.435  10.739 -0.1255 -0.5335  0.0713
    1Sil    Sib 1938   2.678   2.245  10.693  0.1240  0.2547 -0.2645
    1Sil    Sib 1939  -0.114   2.245  11.092  0.4298 -0.6557  0.0966
    1Sil    Sib 1940   2.961   2.184  10.294  0.2060  0.4331 -0.2043
    1Sil    Sib 1941  -0.127   2.244  11.386  0.0296 -0.1270 -0.4521
    1Sil    Sib 1942   2.606   2.233  12.206 -0.5414  0.5065 -0.2608
    1Sil    Sib 1943  -0.424   2.182  11.799  0.3073  0.3921  0.0099
    1Sil    Sib 1944   2.443   2.484  11.840 -0.0305 -0.1315 -0.0360
    1Sil    Sib 1945   2.985   2.494  12.221  0.4556  0.2029  0.0320
    1Sil    Sib 1946   2.740   2.439  11.429 -0.2770  0.3897 -0.0566
    1Sil    Sib 1947   2.722   2.485  12.321  0.2946  0.0192  0.1430
    1Sil    Sib 1948   2.460   2.495  11.531  0.2902 -0.1255  0.3864
    1Sil    Sib 1949  -0.328   2.441  11.918  0.1220  0.0744 -0.4538
    1Sil    Sib 1950   2.611   2.243  11.905  0.3335 -0.0147 -0.5864
    1Sil    Sib 1951  -0.175   2.239  12.280 -0.0897  0.0649 -0.3455
    1Sil    Sib 1952   2.903   2.190  11.492 -0.0980  0.3199 -0.1093
    1Sil    Sib 1953  -0.080   2.729  10.208 -0.1758  0.0617  0.3117
    1Sil    Sib 1954   2.664   2.749  10.989  0.2352  0.5851 -0.0672
    1Sil    Sib 1955  -0.374   2.678  10.599  0.3295  0.1634  0.1674
    1Sil    Sib 1956   2.496   2.978  10.650 -0.1778 -0.0812  0.1059
    1Sil    Sib 1957   3.050   2.986  11.032 -0.4148 -0.1032  0.4028
    1Sil    Sib 1958   2.787   2.919  10.239 -0.0047 -0.3288  0.1739
    1Sil    Sib 1959   2.768   2.989  11.131  0.0754 -0.2618  0.3180
    1Sil    Sib 1960   2.513   2.979  10.345  0.2453  0.4541  0.1072
    1Sil    Sib 1961  -0.263   2.935  10.733 -0.7358  0.1506  0.3954
    1Sil    Sib 1962   2.666   2.733  10.694  0.0555  0.0954 -0.2392
    1Sil    Sib 1963  -0.116   2.729  11.094  0.4202  0.0380  0.3178
    1Sil    Sib 1964   2.955   2.675  10.297 -0.0996  0.0408  0.0958
    1Sil    Sib 1965  -0.129   2.734  11.394  0.2074  0.0624 -0.6138
    1Sil    Sib 1966   2.599   2.733  12.188 -0.2585 -0.1318 -0.0171
    1Sil    Sib 1967  -0.429   2.675  11.779 -0.0287  0.2084  0.3142
    1Sil    Sib 1968   2.458   2.978  11.830 -0.0643  0.0956 -0.0968
    1Sil    Sib 1969   2.983   2.977  12.228 -0.1751  0.1202 -0.3826
    1Sil    Sib 1970   2.742   2.924  11.424  0.4297 -0.0318 -0.2818
    1Sil    Sib 1971   2.706   2.976  12.316  0.2236 -0.2125 -0.0367
    1Sil    Sib 1972   2.462   2.976  11.532  0.4988  0.2830  0.1854
    1Sil    Sib 1973  -0.322   2.921  11.929 -0.2947  0.0476 -0.5929
    1Sil    Sib 1974   2.612   2.729  11.890  0.0758  0.1748 -0.3262
    1Sil    Sib 1975  -0.167   2.733  12.271  0.3323 -0.0613 -0.2373
    1Sil    Sib 1976   2.910   2.684  11.488  0.0520 -0.0381  0.0905
    1Sil    Sib 1977  -0.079   3.233  10.209  0.0533  0.1252  0.1495
    1Sil    Sib 1978   2.652   3.231  10.997  0.0197 -0.1898 -0.3263
    1Sil    Sib 1979  -0.380   3.175  10.601  0.1171 -0.1734 -0.1259
    1Sil    Sib 1980   2.509   3.472  10.630 -0.0098 -0.0924  0.1614
    1Sil    Sib 1981   3.037   3.480  11.039 -0.1613 -0.0630  0.5973
    1Sil    Sib 1982   2.805   3.430  10.237 -0.1492  0.3291  0.0615
    1Sil    Sib 1983   2.755   3.476  11.134  0.2235  0.0097 -0.1671
    1Sil    Sib 1984   2.527   3.476  10.337 -0.2000  0.0460 -0.4419
    1Sil    Sib 1985  -0.266   3.418  10.741 -0.4075  0.2047  0.0302
    1Sil    Sib 1986   2.664   3.222  10.701 -0.0616  0.3704 -0.2172
    1Sil    Sib 1987  -0.112   3.237  11.096  0.7423 -0.1528 -0.2736
    1Sil    Sib 1988   2.944   3.176  10.293 -0.0411 -0.3152  0.2328
    1Sil    Sib 1989  -0.135   3.227  11.393  0.2504  0.2689  0.1667
    1Sil    Sib 1990   2.604   3.221  12.187 -0.1124 -0.2653  0.0174
    1Sil    Sib 1991  -0.414   3.167  11.791  0.2314 -0.2981 -0.1714
    1Sil    Sib 1992   2.447   3.465  11.834 -0.0600  0.5653 -0.5041
    1Sil    Sib 1993   2.990   3.465  12.215  0.1435  0.0109  0.0605
    1Sil    Sib 1994   2.735   3.413  11.426  0.0478 -0.0090  0.0816
    1Sil    Sib 1995   2.714   3.462  12.326 -0.0789 -0.2120  0.0788
    1Sil    Sib 1996   2.456   3.467  11.537 -0.3628  0.3292 -0.2172
    1Sil    Sib 1997  -0.314   3.417  11.918 -0.1000  0.2820  0.3838
    1Sil    Sib 1998   2.621   3.221  11.880  0.3108 -0.1824 -0.2013
    1Sil    Sib 1999  -0.174   3.223  12.288 -0.1391  0.0614 -0.3636
    1Sil    Sib 2000   2.905   3.166  11.489 -0.0200 -0.0556 -0.0042
    1Sil    Sib 2001  -0.069   3.720  10.214 -0.0260  0.1050  0.0545
    1Sil    Sib 2002   2.657   3.724  11.002 -0.3905 -0.0856 -0.0702
    1Sil    Sib 2003  -0.369   3.669  10.606  0.2032 -0.3335 -0.4498
    1Sil    Sib 2004   2.502   3.969  10.650  0.2639  0.2370 -0.2698
    1Sil    Sib 2005   3.042   3.968  11.031  0.0185 -0.4471  0.4555
    1Sil    Sib 2006   2.802   3.919  10.243  0.2901  0.0616 -0.4785
    1Sil    Sib 2007   2.765   3.965  11.139  0.0670 -0.3784 -0.1556
    1Sil    Sib 2008   2.519   3.975  10.349  0.3775 -0.0272  0.0576
    1Sil    Sib 2009  -0.267   3.905  10.742  0.0146 -0.5016  0.3206
    1Sil    Sib 2010   2.670   3.712  10.700 -0.6434 -0.1774  0.1589
    1Sil    Sib 2011  -0.113   3.726  11.096 -0.1332  0.0706  0.7215
    1Sil    Sib 2012   2.969   3.671  10.307 -0.0699  0.2111  0.2733
    1Sil    Sib 2013  -0.129   3.721  11.388 -0.0999  0.1886 -0.1363
    1Sil    Sib 2014   2.599   3.708  12.191 -0.3157  0.3589 -0.4229
    1Sil    Sib 2015  -0.430   3.659  11.779  0.1522  0.0369  0.0802
    1Sil    Sib 2016   2.448   3.952  11.831  0.5027 -0.1340  0.2524
    1Sil    Sib 2017   2.979   3.963  12.229 -0.6384 -0.0735 -0.0865
    1Sil    Sib 2018   2.740   3.905  11.433 -0.1030  0.0084  0.3771
    1Sil    Sib 2019   2.708   3.954  12.331 -0.2486 -0.1951  0.1414
    1Sil    Sib 2020   2.467   3.964  11.538  0.2612 -0.0904  0.0319
    1Sil    Sib 2021  -0.328   3.906  11.928 -0.1252 -0.1479 -0.0782
    1Sil    Sib 2022   2.603   3.713  11.888  0.3376  0.2094 -0.2151
    1Sil    Sib 2023  -0.163   3.717  12.283 -0.1376 -0.0438 -0.2231
    1Sil    Sib 2024   2.905   3.655  11.482  0.1621 -0.2494  0.1987
    1Sil    Sib 2025  -0.081   4.229  10.205 -0.0627  0.2094 -0.0303
    1Sil    Sib 2026   2.650   4.212  11.001 -0.3132 -0.4265 -0.3642
    1Sil    Sib 2027  -0.375   4.151  10.599  0.6138  0.3803  0.1009
    1Sil    Sib 2028   2.506   4.458  10.642 -0.0968 -0.1972  0.0279
    1Sil    Sib 2029   3.047   4.463  11.031 -0.3098 -0.1363  0.4210
    1Sil    Sib 2030   2.791   4.413  10.242 -0.4143  0.2098  0.0050
    1Sil    Sib 2031   2.763   4.458  11.141 -0.1372  0.1981 -0.1208
    1Sil    Sib 2032   2.521   4.464  10.347 -0.3162  0.5833 -0.1365
    1Sil    Sib 2033  -0.266   4.397  10.742 -0.0392 -0.2774  0.1138
    1Sil    Sib 2034   2.663   4.203  10.700  0.0712 -0.4176  0.2689
    1Sil    Sib 2035  -0.119   4.217  11.102  0.0540 -0.6636  0.3610
    1Sil    Sib 2036   2.958   4.173  10.305 -0.5785 -0.1376 -0.2620
    1Sil    Sib 2037  -0.131   4.214  11.401  0.1164 -0.0095 -0.0950
    1Sil    Sib 2038   2.605   4.208  12.205  0.1463 -0.0817 -0.4758
    1Sil    Sib 2039  -0.422   4.160  11.790 -0.2318  0.1405 -0.0756
    1Sil    Sib 2040   2.449   4.453  11.842  0.0545 -0.1104 -0.1623
    1Sil    Sib 2041   2.980   4.452  12.223 -0.3267  0.3992 -0.2022
    1Sil    Sib 2042   2.736   4.394  11.428  0.0868 -0.4499 -0.2217
    1Sil    Sib 2043   2.718   4.450  12.345  0.2818 -0.1660  0.3821
    1Sil    Sib 2044   2.460   4.443  11.540 -0.0304 -0.0595  0.2125
    1Sil    Sib 2045  -0.318   4.403  11.926  0.2916 -0.0555  0.1140
    1Sil    Sib 2046   2.612   4.210  11.907  0.3235  0.4641  0.2487
    1Sil    Sib 2047  -0.178   4.208  12.286 -0.1728  0.1218  0.2171
    1Sil    Sib 2048   2.904   4.157  11.491 -0.1262 -0.0151 -0.0843
    1Sil    Sib 2049  -0.076   4.706  10.211 -0.1502 -0.3632  0.4906
    1Sil    Sib 2050   2.651   4.712  11.009  0.0810  0.3381  0.3304
    1Sil    Sib 2051  -0.365   4.644  10.606 -0.1780  0.1482 -0.1305
    1Sil    Sib 2052   2.508   1.507  10.642  0.1526 -0.0325  0.3032
    1Sil    Sib 2053  -0.284   1.509  11.038 -0.3424 -0.3918 -0.2776
    1Sil    Sib 2054  -0.530   1.440  10.240 -0.0459 -0.5060 -0.4863
    1Sil    Sib 2055   2.763   1.515  11.142 -0.2814 -0.3856  0.1416
    1Sil    Sib 2056   2.512   1.509  10.350 -0.1200 -0.1679 -0.3159
    1Sil    Sib 2057  -0.266   1.449  10.741  0.3909 -0.1057  0.1002
    1Sil    Sib 2058   2.674   4.712  10.702 -0.0447  0.0577 -0.1252
    1Sil    Sib 2059  -0.113   4.714  11.091  0.3088 -0.3459 -0.0130
    1Sil    Sib 2060   2.962   4.649  10.301 -0.2624  0.0823  0.2493
    1Sil    Sib 2061  -0.128   4.708  11.396 -0.0897  0.6339 -0.5433
    1Sil    Sib 2062   2.608   4.696  12.204  0.2341  0.0780  0.5712
    1Sil    Sib 2063  -0.424   4.647  11.789 -0.1817  0.0890 -0.0723
    1Sil    Sib 2064   2.453   1.502  11.832 -0.3556 -0.1747  0.1506
    1Sil    Sib 2065  -0.325   1.492  12.229 -0.3172  0.2048 -0.3386
    1Sil    Sib 2066  -0.571   1.452  11.435  0.1334 -0.0529 -0.3590
    1Sil    Sib 2067   2.717   1.497  12.334  0.1127 -0.0329 -0.0797
    1Sil    Sib 2068   2.474   1.497  11.537  0.3122  0.0739  0.5230
    1Sil    Sib 2069  -0.322   1.446  11.928 -0.1191 -0.3631  0.1255
    1Sil    Sib 2070   2.620   4.693  11.901  0.2145  0.0263 -0.0565
    1Sil    Sib 2071  -0.180   4.690  12.299  0.3266  0.6813  0.2444
    1Sil    Sib 2072   2.903   4.653  11.487 -0.6045 -0.0823 -0.1479
    1Sil     Hy 2073   0.836   1.782  10.014 -1.4530  0.7135  0.3391
    1Sil     Hy 2074   0.298   1.869  10.028 -1.1695  0.1814 -0.3997
    1Sil     Hy 2075   0.234   1.919  12.515 -0.2393 -0.4371 -0.8513
    1Sil     Hy 2076   0.743   1.816  12.488 -0.2115 -0.3980  1.3359
    1Sil     Hy 2077   0.779   2.270   9.998 -1.6381  0.1707  1.5891
    1Sil     Hy 2078   0.232   2.352  10.068 -1.6511  1.7735 -2.3509
    1Sil     Hy 2079   0.108   2.493  12.494 -1.9708 -3.0315  1.0551
    1Sil     Hy 2080   0.610   2.200  12.473  0.4800  1.6124 -1.5683
    1Sil     Hy 2081   0.905   2.708  10.045  0.9427 -1.4195  1.6610
    1Sil     Hy 2082   0.272   2.844  10.061 -2.2675  0.4214 -0.4924
    1Sil     Hy 2083   0.266   3.006  12.544 -0.7946  1.5198  0.3815
    1Sil     Hy 2084   0.772   2.670  12.438 -0.0612 -0.4466  0.3863
    1Sil     Hy 2085   0.886   3.198  10.057 -0.4684 -0.1221  2.6721
    1Sil     Hy 2086   0.268   3.363  10.042 -0.9808 -0.4112 -0.3713
    1Sil     Hy 2087   0.258   3.408  12.520  0.3947  3.1333  2.6624
    1Sil     Hy 2088   0.625   3.145  12.480  0.8324  0.1324 -0.2954
    1Sil     Hy 2089   0.805   3.790  10.013  1.9248 -0.2303 -1.4468
    1Sil     Hy 2090   0.290   3.856  10.054 -1.9546  0.0016 -0.8234
    1Sil     Hy 2091   0.228   3.994  12.536 -1.6536  0.1292  1.5101
    1Sil     Hy 2092   0.621   3.619  12.481 -0.0994  0.0160 -1.3243
    1Sil     Hy 2093   0.757   4.142  10.007  1.1035  0.5046 -0.6240
    1Sil     Hy 2094   0.252   4.350  10.050  2.7375 -0.3539  1.1141
    1Sil     Hy 2095   0.188   4.530  12.537  0.6290 -0.0008  0.6166
    1Sil     Hy 2096   0.649   4.277  12.483 -1.3947  1.3435 -3.1002
    1Sil     Hy 2097   0.797   4.746  10.005 -1.7344 -0.0125  1.3457
    1Sil     Hy 2098   0.254   1.378  10.046 -0.9778  0.1945 -0.1803
    1Sil     Hy 2099   0.153   1.543  12.522 -1.3463 -1.6516  0.6652
    1Sil     Hy 2100   0.749   4.631  12.469 -0.9319 -2.6155 -0.8419
    1Sil     Hy 2101   1.591   1.797  10.017  0.9536  0.5846  0.3764
    1Sil     Hy 2102   1.210   1.966  10.053 -0.4897  0.8578 -2.6841
    1Sil     Hy 2103   1.018   2.068  12.515  0.4100  0.1286 -0.4564
    1Sil     Hy 2104   1.433   1.758  12.479 -2.5629 -3.2148 -1.3663
    1Sil     Hy 2105   1.626   2.273   9.991 -1.7502 -0.0310 -0.4129
    1Sil     Hy 2106   1.142   2.419  10.030 -1.5456 -0.2390 -1.6335
    1Sil     Hy 2107   1.027   2.380  12.510 -1.8032 -1.1125 -2.4767
    1Sil     Hy 2108   1.508   2.300  12.486  0.3274 -0.8050  1.0314
    1Sil     Hy 2109   1.648   2.827  10.015 -0.5873  0.3288  0.5119
    1Sil     Hy 2110   1.205   2.980  10.052 -0.4056 -2.5847  1.1223
    1Sil     Hy 2111   1.084   2.934  12.544  0.5040  1.6448 -1.6065
    1Sil     Hy 2112   1.495   2.780  12.494 -0.4541 -0.6989  0.7148
    1Sil     Hy 2113   1.622   3.305  10.007 -2.2203 -0.0544 -0.9317
    1Sil     Hy 2114   1.181   3.432  10.056  0.0756 -0.9660 -0.6387
    1Sil     Hy 2115   0.953   3.503  12.473 -3.1959 -1.3166  0.3366
    1Sil     Hy 2116   1.611   3.257  12.435  0.8542 -0.8262 -0.5504
    1Sil     Hy 2117   1.700   3.771  10.032  1.3150 -0.5221  0.9007
    1Sil     Hy 2118   1.170   3.930  10.041 -0.0168 -1.1676  0.6129
    1Sil     Hy 2119   1.081   3.903  12.532  0.9853  1.7998  0.9355
    1Sil     Hy 2120   1.449   3.651  12.493  1.5426 -0.8551  0.6308
    1Sil     Hy 2121   1.524   4.234  10.009 -0.1779 -1.9380 -1.8988
    1Sil     Hy 2122   1.081   4.359  10.041 -0.2107  0.3599 -0.2427
    1Sil     Hy 2123   0.934   4.459  12.519 -0.4584 -2.2963  1.7663
    1Sil     Hy 2124   1.467   4.263  12.472 -1.1845 -0.4124 -0.5244
    1Sil     Hy 2125   1.574   4.724  10.012 -0.4086  1.1002  2.3223
    1Sil     Hy 2126   1.116   1.404  10.034 -2.4413  0.3373 -1.4477
    1Sil     Hy 2127   0.976   1.562  12.523  1.3173  0.4516 -0.6094
    1Sil     Hy 2128   1.445   4.707  12.505  0.7673  0.1252 -0.4841
    1Sil     Hy 2129   2.389   1.774  10.003 -0.8410 -1.5011  0.4717
    1Sil     Hy 2130   1.860   1.855  10.084 -0.3156  0.3389  0.9740
    1Sil     Hy 2131   1.783   1.891  12.506  2.3945 -0.5570  0.3653
    1Sil     Hy 2132   2.349   1.786  12.497 -0.2698 -0.4667  0.5182
    1Sil     Hy 2133   2.367   2.212  10.005  0.0606  1.0652  1.6367
    1Sil     Hy 2134   1.958   2.365  10.041  0.3849  0.5294 -0.9313
    1Sil     Hy 2135   1.821   2.398  12.506 -1.0848 -0.1006 -1.6592
    1Sil     Hy 2136   2.348   2.119  12.490 -0.6431  0.2425 -0.8585
    1Sil     Hy 2137   2.350   2.734  10.005 -0.1803 -0.4422  0.3905
    1Sil     Hy 2138   1.931   2.921  10.031 -0.8281 -1.8726  1.5210
    1Sil     Hy 2139   1.908   2.974  12.535 -0.8892 -0.5211  0.5784
    1Sil     Hy 2140   2.278   2.751  12.497  0.5052  0.2687  0.1736
    1Sil     Hy 2141   2.425   3.254  10.012  0.5263  0.2717 -0.2737
    1Sil     Hy 2142   1.942   3.345  10.069 -2.8415 -0.4631 -0.7338
    1Sil     Hy 2143   1.837   3.494  12.534  1.9233  0.7942 -1.7256
    1Sil     Hy 2144   2.313   3.254  12.496 -1.5666  0.2943 -2.0672
    1Sil     Hy 2145   2.506   3.616  10.034 -0.8584 -0.2081  1.1463
    1Sil     Hy 2146   1.916   4.027  10.058  0.7971  0.2063 -0.2760
    1Sil     Hy 2147   1.909   3.902  12.526 -0.3046 -0.4696  0.1944
    1Sil     Hy 2148   2.398   3.756  12.477 -1.5706 -0.0161  1.7651
    1Sil     Hy 2149   2.351   4.182  10.018 -0.8204  0.2023  0.6231
    1Sil     Hy 2150   1.873   4.352  10.071  0.2678 -0.1661 -1.2589
    1Sil     Hy 2151   1.906   4.467  12.539  1.9779 -2.5109  0.2580
    1Sil     Hy 2152   2.229   4.145  12.467 -0.5319  1.6255  1.1069
    1Sil     Hy 2153   2.417   4.709  10.006 -0.6322 -2.8212  0.1479
    1Sil     Hy 2154   1.939   1.405  10.032 -2.3164 -0.7408 -0.0256
    1Sil     Hy 2155   1.912   1.433  12.533 -0.7587 -0.6489  1.2030
    1Sil     Hy 2156   2.277   4.681  12.500 -0.4618 -0.5210  0.0466
    1Sil     Hy 2157  -0.049   1.799  10.003  0.7739 -0.1111  0.3934
    1Sil     Hy 2158   2.748   1.880  10.083 -0.3260  0.1616  0.0580
    1Sil     Hy 2159   2.705   1.883  12.525 -0.6460 -0.2219  0.2743
    1Sil     Hy 2160  -0.134   1.798  12.488 -0.6397 -0.3724  0.8852
    1Sil     Hy 2161  -0.080   2.155  10.032 -1.0379  1.3930 -0.7416
    1Sil     Hy 2162   2.753   2.370  10.039 -0.3396  1.3160 -2.0214
    1Sil     Hy 2163   2.686   2.526  12.527  0.0497 -0.9733  0.2689
    1Sil     Hy 2164  -0.150   2.297  12.490 -3.4124  0.8653 -1.5075
    1Sil     Hy 2165  -0.077   2.773  10.011  0.2520 -0.7446 -0.6722
    1Sil     Hy 2166   2.730   2.874  10.047 -2.9132  1.4454 -1.6636
    1Sil     Hy 2167   2.688   3.021  12.522  0.1936 -0.6212  0.6707
    1Sil     Hy 2168  -0.208   2.770  12.475  0.5044  0.2731 -0.4567
    1Sil     Hy 2169  -0.029   3.296  10.018 -1.1435 -0.3099 -1.3564
    1Sil     Hy 2170   2.804   3.419  10.028 -1.4614  1.0691 -1.6706
    1Sil     Hy 2171   2.698   3.506  12.535  1.0799  1.5518 -2.2357
    1Sil     Hy 2172  -0.214   3.139  12.484  0.0359  0.3744  2.2312
    1Sil     Hy 2173  -0.067   3.610  10.041 -1.5623  0.7946  1.3257
    1Sil     Hy 2174   2.807   3.888  10.040  0.4055  2.7685 -0.7122
    1Sil     Hy 2175   2.692   3.839  12.521 -1.3245 -1.3518 -1.0993
    1Sil     Hy 2176  -0.132   3.594  12.449  2.0883 -1.2034 -0.5092
    1Sil     Hy 2177  -0.100   4.270  10.000 -0.5002  0.2786 -0.2955
    1Sil     Hy 2178   2.794   4.359  10.026  0.6118 -0.1744  1.3620
    1Sil     Hy 2179   2.698   4.504  12.544 -0.4538 -0.8620  1.5660
    1Sil     Hy 2180  -0.111   4.259  12.476  0.9574  0.2198 -0.3411
    1Sil     Hy 2181   0.007   4.750  10.020  2.7697  0.0694  0.7249
    1Sil     Hy 2182  -0.571   1.369  10.055  1.2643 -0.7357  0.2996
    1Sil     Hy 2183   2.731   1.539  12.531 -2.3890  0.4184  0.7623
    1Sil     Hy 2184  -0.227   4.707  12.501 -0.5288 -0.7090 -1.1627
    2Eth     Ho 2185   2.707   3.042   2.842  0.4648 -1.0949  0.2294
    2Eth     Oh 2186   2.794   3.051   2.807  0.2418  0.5117  0.0643
    2Eth     Co 2187   2.871   3.136   2.888 -0.3778  0.5871  0.2859
    2Eth    Hco 2188   2.926   3.079   2.963 -0.5710 -2.2691 -1.6698
    2Eth    Hco 2189   2.817   3.217   2.937 -0.5169 -0.4851  1.9538
    2Eth     Ch 2190   2.973   3.197   2.804 -0.1084  0.8231 -0.4399
    2Eth    Hcc 2191   3.058   3.235   2.861 -0.3387 -0.4375  0.7486
    2Eth    Hcc 2192   2.933   3.275   2.740 -3.1437  0.0745  0.5021
    2Eth    Hcc 2193   3.020   3.120   2.743  0.0951 -0.2114  0.9901
    3Eth     Ho 2194   1.164   0.056   8.818  1.9883  0.1280 -0.2254
    3Eth     Oh 2195   1.194  -0.019   8.865 -0.1641 -0.6387 -0.0477
    3Eth     Co 2196   1.076  -0.091   8.905  0.3923  0.7142 -0.2747
    3Eth    Hco 2197   1.020  -0.114   8.814 -0.7310  1.9991  0.0671
    3Eth    Hco 2198   1.026  -0.034   8.983  1.5150 -0.4318  1.2957
    3Eth     Ch 2199   1.103  -0.221   8.989  0.9138 -0.6593  0.7249
    3Eth    Hcc 2200   1.116  -0.309   8.926  1.2605 -0.6266  0.7520
    3Eth    Hcc 2201   1.031  -0.244   9.068  0.6305  0.5518  0.8303
    3Eth    Hcc 2202   1.195  -0.202   9.044 -0.0762  1.4020  1.7477
    4Eth     Ho 2203   1.959   0.064   8.640  0.7097  1.5395  2.7287
    4Eth     Oh 2204   1.940   0.146   8.598  0.9066  0.2415 -0.0317
    4Eth     Co 2205   1.862   0.213   8.692 -0.0027 -0.1143 -1.1741
    4Eth    Hco 2206   1.921   0.248   8.777  0.8139  0.5651 -2.0091
    4Eth    Hco 2207   1.793   0.140   8.735  0.7206 -2.0117 -3.1649
    4Eth     Ch 2208   1.783   0.327   8.644  0.4339 -0.5966 -0.0462
    4Eth    Hcc 2209   1.849   0.405   8.605  1.0883 -0.4607  1.2979
    4Eth    Hcc 2210   1.721   0.363   8.726 -0.0435 -4.1966  1.2778
    4Eth    Hcc 2211   1.706   0.295   8.574 -0.5620  0.7332  0.4079
    5Eth     Ho 2212   0.322   2.919   8.133 -0.8687 -2.2474 -3.0254
    5Eth     Oh 2213   0.268   2.986   8.095  0.1961  0.4224  0.0403
    5Eth     Co 2214   0.156   2.930   8.029 -0.4175 -0.7234 -0.4199
    5Eth    Hco 2215   0.085   2.883   8.098 -0.2129  0.1162  0.3674
    5Eth    Hco 2216   0.182   2.870   7.942 -1.1417  1.4804 -2.2024
    5Eth     Ch 2217   0.067   3.043   7.969 -0.1134 -0.1868 -0.1301
    5Eth    Hcc 2218   0.035   3.114   8.045  2.6379 -1.0664  1.9378
    5Eth    Hcc 2219  -0.023   2.998   7.928  0.9164 -2.0735 -0.3816
    5Eth    Hcc 2220   0.113   3.097   7.885 -0.7054  0.7134  0.1128
    6Eth     Ho 2221   2.536   1.821   3.356  0.1576  1.8852 -0.8601
    6Eth     Oh 2222   2.517   1.821   3.264 -0.0436 -0.2056 -0.8387
    6Eth     Co 2223   2.392   1.872   3.246 -0.5122  1.0294  0.3737
    6Eth    Hco 2224   2.373   1.968   3.293  0.8208  1.3053  0.3518
    6Eth    Hco 2225   2.328   1.801   3.299 -2.7188  2.7269  0.0711
    6Eth     Ch 2226   2.347   1.860   3.103  0.1332  0.2806  0.3966
    6Eth    Hcc 2227   2.362   1.760   3.064 -2.1524 -1.4876  3.7943
    6Eth    Hcc 2228   2.405   1.933   3.046 -1.1983  0.9157 -0.1570
    6Eth    Hcc 2229   2.242   1.881   3.084  0.5077  1.8250 -0.0507
    7Eth     Ho 2230   2.264   3.098   1.425  2.9865 -1.7878 -4.4047
    7Eth     Oh 2231   2.339   3.082   1.479  0.1112  0.2916  0.5453
    7Eth     Co 2232   2.313   3.141   1.604 -0.1957  0.3186  0.6381
    7Eth    Hco 2233   2.265   3.059   1.657  2.5702 -0.3743  2.1592
    7Eth    Hco 2234   2.245   3.226   1.605  0.4660  0.8452  2.0035
    7Eth     Ch 2235   2.440   3.201   1.665  0.4072  0.3702  0.2283
    7Eth    Hcc 2236   2.477   3.285   1.606 -0.7524 -0.1285 -1.2330
    7Eth    Hcc 2237   2.529   3.140   1.677  1.3579  1.3273 -1.7142
    7Eth    Hcc 2238   2.410   3.237   1.763  0.2304 -1.8419  1.0103
    8Eth     Ho 2239   0.894   0.336   7.791  1.2003  3.4899 -0.0028
    8Eth     Oh 2240   0.919   0.313   7.703 -0.3757  0.2780  0.2859
    8Eth     Co 2241   1.044   0.369   7.678 -0.0843 -0.6265  0.1119
    8Eth    Hco 2242   1.102   0.363   7.770  2.1019  2.6032 -0.9730
    8Eth    Hco 2243   1.023   0.472   7.650  0.2818 -1.0334 -1.7719
    8Eth     Ch 2244   1.098   0.310   7.549 -0.6234 -0.0748  0.0766
    8Eth    Hcc 2245   1.034   0.330   7.463 -1.0224  0.8970  0.5899
    8Eth    Hcc 2246   1.118   0.203   7.561 -0.6739 -0.4530 -2.7485
    8Eth    Hcc 2247   1.197   0.353   7.533 -0.0774 -0.5346  2.0199
    9Eth     Ho 2248   2.905   1.752   6.914 -1.5868  0.4319  1.4364
    9Eth     Oh 2249   2.874   1.710   6.836  0.7390  0.2577  0.5744
    9Eth     Co 2250   2.967   1.606   6.817  0.2005  0.1199  0.1449
    9Eth    Hco 2251   2.971   1.543   6.906 -0.6961  1.9228  1.4933
    9Eth    Hco 2252   3.064   1.650   6.796  0.2455 -0.2289 -0.3884
    9Eth     Ch 2253   2.921   1.522   6.691  0.1303  0.4952 -0.2799
    9Eth    Hcc 2254   2.844   1.447   6.706 -1.3449  1.7736 -1.3583
    9Eth    Hcc 2255   3.008   1.473   6.648 -0.8098 -0.2118 -1.4125
    9Eth    Hcc 2256   2.874   1.589   6.619 -1.1731 -0.7625 -0.6093
   10Eth     Ho 2257   2.435   2.808   7.244  2.4320  1.7802 -2.0690
   10Eth     Oh 2258   2.487   2.733   7.266 -0.6515  0.2654  0.5630
   10Eth     Co 2259   2.614   2.773   7.318 -0.5153  0.1304 -0.2432
   10Eth    Hco 2260   2.600   2.805   7.421 -1.1121  0.7951 -0.5305
   10Eth    Hco 2261   2.637   2.862   7.260 -0.9743 -1.6058 -3.2154
   10Eth     Ch 2262   2.729   2.673   7.308  0.4583  0.8366  1.0970
   10Eth    Hcc 2263   2.819   2.695   7.366  1.0687  0.1983  0.4165
   10Eth    Hcc 2264   2.757   2.658   7.204 -0.0561  1.5227  0.8624
   10Eth    Hcc 2265   2.700   2.570   7.329  1.3063 -0.2524 -2.6391
   11Eth     Ho 2266   0.041   1.783   7.480 -1.1242 -0.8758  1.8178
   11Eth     Oh 2267  -0.016   1.768   7.407  0.4225 -0.3198  0.4432
   11Eth     Co 2268   0.013   1.644   7.332  0.5036 -0.5730 -0.2873
   11Eth    Hco 2269   0.122   1.642   7.323  0.7477  0.8335  1.9146
   11Eth    Hco 2270  -0.045   1.642   7.239  0.6329  0.8510 -0.4109
   11Eth     Ch 2271  -0.019   1.522   7.420  0.1817 -0.0488 -1.0560
   11Eth    Hcc 2272  -0.120   1.522   7.460  0.3936  1.2564 -0.5029
   11Eth    Hcc 2273   0.047   1.509   7.506 -3.0198 -0.5940  1.3985
   11Eth    Hcc 2274  -0.005   1.434   7.356 -2.4400 -2.6335  1.7402
   12Eth     Ho 2275   0.757   2.898   9.397 -0.5416 -1.8982  0.8745
   12Eth     Oh 2276   0.840   2.874   9.360 -0.1786 -0.2456  0.5786
   12Eth     Co 2277   0.839   2.908   9.227 -0.1616 -0.0877 -0.1822
   12Eth    Hco 2278   0.843   3.017   9.236 -0.6742 -0.1268  0.5868
   12Eth    Hco 2279   0.744   2.874   9.184 -0.6448  1.2072 -0.1790
   12Eth     Ch 2280   0.953   2.844   9.147  0.3604  0.3319 -0.6546
   12Eth    Hcc 2281   0.952   2.736   9.163  1.4728  0.6930  2.0211
   12Eth    Hcc 2282   1.050   2.882   9.181  0.5238  0.3258 -1.1069
   12Eth    Hcc 2283   0.937   2.866   9.041 -2.7332 -0.9446 -0.5138
   13Eth     Ho 2284   2.778   2.659   3.049  1.1646 -0.0406  0.0379
   13Eth     Oh 2285   2.830   2.702   3.115 -0.0695  0.3754  0.7606
   13Eth     Co 2286   2.744   2.780   3.198  0.4310 -0.2394  0.5836
   13Eth    Hco 2287   2.796   2.791   3.293  1.6799 -0.6042 -0.0348
   13Eth    Hco 2288   2.652   2.722   3.207  0.1809  0.1808  0.7285
   13Eth     Ch 2289   2.703   2.913   3.135  0.2560  0.1875 -0.0704
   13Eth    Hcc 2290   2.775   2.995   3.141  0.3953  0.0233  0.4975
   13Eth    Hcc 2291   2.603   2.940   3.168  1.2398  1.6990  1.7741
   13Eth    Hcc 2292   2.707   2.883   3.030 -1.7790 -0.8967  0.1442
   14Eth     Ho 2293   0.152   0.740   1.548 -1.2558 -1.9414 -0.8943
   14Eth     Oh 2294   0.119   0.729   1.636  0.1708  0.4134 -0.0268
   14Eth     Co 2295   0.208   0.640   1.693  0.2858 -0.2385  0.6084
   14Eth    Hco 2296   0.302   0.646   1.638 -0.5882  2.0991 -0.6516
   14Eth    Hco 2297   0.164   0.540   1.696 -2.6324  0.8800 -2.7041
   14Eth     Ch 2298   0.247   0.677   1.840  0.2899 -0.1618 -0.6378
   14Eth    Hcc 2299   0.281   0.780   1.845 -0.1286 -0.0182 -0.7169
   14Eth    Hcc 2300   0.322   0.605   1.874 -2.2665 -1.0258  3.6013
   14Eth    Hcc 2301   0.171   0.656   1.916  1.1065  0.1728  0.2734
   15Eth     Ho 2302   1.560   2.229   8.560  1.8184 -1.0638 -0.0489
   15Eth     Oh 2303   1.558   2.194   8.473 -0.3822 -0.2632 -0.3289
   15Eth     Co 2304   1.546   2.301   8.386  0.3937  0.3182  0.4516
   15Eth    Hco 2305   1.633   2.361   8.412  0.8307  0.3970 -1.1185
   15Eth    Hco 2306   1.457   2.364   8.397 -0.3939 -0.5100 -0.9623
   15Eth     Ch 2307   1.576   2.260   8.245  0.0728  0.1872  0.4120
   15Eth    Hcc 2308   1.671   2.207   8.236 -0.0173  0.3367 -1.8621
   15Eth    Hcc 2309   1.580   2.343   8.174  1.6313 -0.2655 -0.0468
   15Eth    Hcc 2310   1.510   2.177   8.220  0.8557  0.6464 -3.6195
   16Eth     Ho 2311   0.582   1.068   4.600 -0.4171  1.8426 -2.7225
   16Eth     Oh 2312   0.675   1.068   4.583  0.0058 -0.6781 -0.7526
   16Eth     Co 2313   0.700   1.197   4.525  0.5403 -0.0066  0.0599
   16Eth    Hco 2314   0.647   1.274   4.581  2.7903  0.4636  1.5871
   16Eth    Hco 2315   0.676   1.198   4.418 -0.8756 -3.0043  0.3014
   16Eth     Ch 2316   0.844   1.221   4.542 -0.5375 -0.0790 -0.0900
   16Eth    Hcc 2317   0.885   1.191   4.638 -1.3372  0.8488  0.5514
   16Eth    Hcc 2318   0.869   1.327   4.534 -0.9822 -0.0524 -1.1397
   16Eth    Hcc 2319   0.903   1.167   4.468 -2.3361 -1.4850 -0.5347
   17Eth     Ho 2320   2.516   1.148   6.353  1.5338  2.4793 -0.8694
   17Eth     Oh 2321   2.442   1.190   6.394  0.4277  0.3426 -0.6200
   17Eth     Co 2322   2.358   1.083   6.397 -0.2605  0.3351 -1.0159
   17Eth    Hco 2323   2.377   1.024   6.487  0.1511  0.6553 -0.8890
   17Eth    Hco 2324   2.373   1.021   6.309 -2.0178 -1.2809 -0.1918
   17Eth     Ch 2325   2.215   1.129   6.406 -0.7045  0.0458 -0.4539
   17Eth    Hcc 2326   2.156   1.070   6.477  0.2385 -1.3887 -0.8601
   17Eth    Hcc 2327   2.167   1.110   6.310 -0.4668  2.4278 -1.0796
   17Eth    Hcc 2328   2.212   1.235   6.431  0.4451 -0.1119  0.3837
   18Eth     Ho 2329   3.111   0.834   2.829 -0.0043 -1.3641  2.8697
   18Eth     Oh 2330   3.204   0.830   2.841  0.4699 -0.0606 -0.0502
   18Eth     Co 2331   3.236   0.709   2.893  0.3299  0.1175 -0.3042
   18Eth    Hco 2332   3.212   0.631   2.821 -0.8238 -1.0101  1.2576
   18Eth    Hco 2333   3.174   0.689   2.980  0.9602 -0.4773  0.0231
   18Eth     Ch 2334   3.375   0.696   2.942 -0.7565  0.6284 -0.2375
   18Eth    Hcc 2335   3.406   0.592   2.949  1.7649  1.4181  1.1212
   18Eth    Hcc 2336   3.400   0.739   3.039 -1.3080 -0.8598  0.5795
   18Eth    Hcc 2337   3.437   0.739   2.863  1.1791 -0.6353  0.5436
   19Eth     Ho 2338   2.178   0.628   4.252 -1.1703 -0.6929  0.0563
   19Eth     Oh 2339   2.195   0.617   4.343  0.1867 -0.2982 -0.1443
   19Eth     Co 2340   2.095   0.521   4.397 -0.4491 -0.6180  0.1445
   19Eth    Hco 2341   2.109   0.431   4.338  1.3522  1.3488 -2.5508
   19Eth    Hco 2342   1.995   0.564   4.391 -0.1844  0.0555  0.4089
   19Eth     Ch 2343   2.138   0.485   4.540 -0.4586  0.0532 -0.8575
   19Eth    Hcc 2344   2.115   0.563   4.612  2.4900 -0.4312  0.6943
   19Eth    Hcc 2345   2.239   0.450   4.564 -1.3467 -1.6101  0.5834
   19Eth    Hcc 2346   2.079   0.397   4.566 -0.5256 -0.0336 -1.2950
   20Eth     Ho 2347   0.326   0.138   4.152 -2.5943  0.6469 -0.3185
   20Eth     Oh 2348   0.334   0.193   4.228  0.0965  0.0392 -0.0918
   20Eth     Co 2349   0.306   0.328   4.191  0.2441 -0.2246 -0.1936
   20Eth    Hco 2350   0.242   0.321   4.103  2.2082 -0.6336 -1.6101
   20Eth    Hco 2351   0.401   0.380   4.181  0.3369 -0.2976  0.2730
   20Eth     Ch 2352   0.216   0.387   4.305 -0.3586 -0.4329 -0.0314
   20Eth    Hcc 2353   0.260   0.386   4.405  0.5363 -0.1140 -0.4154
   20Eth    Hcc 2354   0.115   0.345   4.303 -0.4192 -0.3080  0.2768
   20Eth    Hcc 2355   0.201   0.492   4.277 -0.5279 -0.6347 -0.7229
   21Eth     Ho 2356   1.260   1.296   9.622  0.0746 -4.0891 -2.2789
   21Eth     Oh 2357   1.208   1.248   9.684 -0.4076 -0.2364  0.4901
   21Eth     Co 2358   1.080   1.308   9.679  0.0356  0.6637  0.5267
   21Eth    Hco 2359   1.072   1.363   9.585  2.2458 -0.9469 -0.6427
   21Eth    Hco 2360   1.073   1.376   9.764 -0.8202  1.5704 -0.2536
   21Eth     Ch 2361   0.983   1.196   9.705  0.0456  0.2478  0.1268
   21Eth    Hcc 2362   1.000   1.119   9.630 -1.6127 -2.1503  2.1423
   21Eth    Hcc 2363   0.878   1.225   9.712  0.0160  0.2632 -0.4176
   21Eth    Hcc 2364   1.011   1.158   9.803  1.8972  0.0078 -0.4812
   22Eth     Ho 2365   0.307   0.960   3.426 -1.1665  0.9899 -0.9759
   22Eth     Oh 2366   0.328   1.020   3.495 -0.5813 -0.6250  0.2759
   22Eth     Co 2367   0.414   1.111   3.432 -0.4722 -0.1243  0.2510
   22Eth    Hco 2368   0.402   1.115   3.323  0.1114  0.0447  0.1911
   22Eth    Hco 2369   0.519   1.088   3.451  0.0556  0.8431 -1.3751
   22Eth     Ch 2370   0.397   1.251   3.486 -0.0434 -1.1370 -0.3042
   22Eth    Hcc 2371   0.296   1.288   3.469  0.5778 -0.6327 -3.2023
   22Eth    Hcc 2372   0.463   1.322   3.436 -1.5659  0.7550  0.3098
   22Eth    Hcc 2373   0.424   1.260   3.591 -1.8057  1.1350  0.0025
   23Eth     Ho 2374   0.295   0.728   7.289 -1.2156  1.5966  0.8490
   23Eth     Oh 2375   0.373   0.776   7.307  0.2619 -0.1823 -0.5870
   23Eth     Co 2376   0.449   0.717   7.404 -0.4938  0.7305  0.3211
   23Eth    Hco 2377   0.466   0.610   7.394 -0.2823  0.9008 -1.2609
   23Eth    Hco 2378   0.378   0.722   7.487 -1.9075  2.5898 -0.9449
   23Eth     Ch 2379   0.565   0.810   7.435 -0.2887 -0.0228 -0.0062
   23Eth    Hcc 2380   0.632   0.776   7.514 -2.5119  0.1354  2.0122
   23Eth    Hcc 2381   0.524   0.906   7.465 -0.6260 -0.1811  0.0330
   23Eth    Hcc 2382   0.630   0.830   7.349  1.9104 -1.0971  1.3524
   24Eth     Ho 2383   2.269   3.129   8.948  1.3221  1.7246 -0.4353
   24Eth     Oh 2384   2.321   3.071   8.895  0.2572  0.4392 -0.0913
   24Eth     Co 2385   2.355   2.962   8.984 -0.1674  0.0373 -0.6157
   24Eth    Hco 2386   2.280   2.955   9.062  1.9980  0.6343  1.5745
   24Eth    Hco 2387   2.448   2.985   9.035 -0.8657 -0.7833  1.0427
   24Eth     Ch 2388   2.359   2.847   8.888  0.2537  0.5297  0.2269
   24Eth    Hcc 2389   2.378   2.752   8.938 -1.0445 -0.2233 -0.7070
   24Eth    Hcc 2390   2.432   2.846   8.807  1.0787  0.4087  0.9603
   24Eth    Hcc 2391   2.262   2.841   8.841 -0.2710 -1.0971  1.4830
   25Eth     Ho 2392   3.034   2.288   1.425  1.5335 -0.1411  0.7752
   25Eth     Oh 2393   2.989   2.212   1.458 -0.3619  0.1869 -0.9512
   25Eth     Co 2394   2.866   2.207   1.406  0.1252 -0.0074 -0.0870
   25Eth    Hco 2395   2.879   2.187   1.300  1.8444  0.5971  0.0022
   25Eth    Hco 2396   2.827   2.308   1.417  1.8426  0.5473  1.0851
   25Eth     Ch 2397   2.766   2.110   1.469 -0.3036  0.2010  0.5020
   25Eth    Hcc 2398   2.668   2.114   1.421 -0.5962  1.3984  1.1873
   25Eth    Hcc 2399   2.755   2.109   1.577 -1.5696  2.1492  0.4105
   25Eth    Hcc 2400   2.805   2.011   1.442 -0.0567 -0.0573  1.7757
   26Eth     Ho 2401   0.130   0.540   2.387  0.2360  2.8440  0.2467
   26Eth     Oh 2402   0.138   0.536   2.481 -0.1497  0.1077  0.1978
   26Eth     Co 2403   0.176   0.657   2.539 -0.3780 -0.2012 -0.1393
   26Eth    Hco 2404   0.131   0.678   2.636  1.8457  0.9773  0.6691
   26Eth    Hco 2405   0.155   0.733   2.464  1.2343  1.1954  0.8128
   26Eth     Ch 2406   0.331   0.672   2.565 -0.4222 -0.4596 -0.4445
   26Eth    Hcc 2407   0.358   0.773   2.595 -0.0829 -0.7867  0.3520
   26Eth    Hcc 2408   0.380   0.639   2.473 -0.1134 -0.7758 -0.1655
   26Eth    Hcc 2409   0.364   0.609   2.647 -0.6367  1.2338  0.9557
   27Eth     Ho 2410   0.458   3.280   1.430 -0.7874 -0.2362  2.7356
   27Eth     Oh 2411   0.383   3.245   1.386  0.6895 -0.0669 -0.0499
   27Eth     Co 2412   0.271   3.284   1.461  0.3546  0.5388  0.0040
   27Eth    Hco 2413   0.253   3.390   1.443 -1.1278  0.2189 -0.5027
   27Eth    Hco 2414   0.293   3.273   1.567 -1.8546  1.8172  0.6227
   27Eth     Ch 2415   0.155   3.183   1.446 -0.2707 -0.1993 -0.1467
   27Eth    Hcc 2416   0.126   3.181   1.340 -0.6763 -2.5320 -0.0371
   27Eth    Hcc 2417   0.064   3.212   1.498 -1.6228 -0.4117 -2.3263
   27Eth    Hcc 2418   0.178   3.080   1.476  0.0062 -0.2272 -0.4420
   28Eth     Ho 2419   0.334   2.625   9.975  3.3030 -0.1560 -0.1902
   28Eth     Oh 2420   0.314   2.696   9.917  0.1183 -0.2962  0.6334
   28Eth     Co 2421   0.425   2.732   9.830 -0.1231  0.0130 -0.2125
   28Eth    Hco 2422   0.516   2.755   9.885 -0.9831  3.7408 -0.1780
   28Eth    Hco 2423   0.402   2.827   9.782  0.7548  0.7054  0.7280
   28Eth     Ch 2424   0.462   2.629   9.725 -0.0981  0.3788  0.4822
   28Eth    Hcc 2425   0.548   2.673   9.674 -0.4072  0.7365  0.2642
   28Eth    Hcc 2426   0.382   2.614   9.651 -1.3246  0.7529  1.7059
   28Eth    Hcc 2427   0.473   2.530   9.767 -1.5629 -0.0529 -0.1166
   29Eth     Ho 2428   3.027   2.337   7.007  2.3417  0.2967  0.3343
   29Eth     Oh 2429   3.013   2.244   7.003 -0.4976  0.6708  0.5724
   29Eth     Co 2430   3.088   2.205   6.890  0.2280  0.1032 -0.1109
   29Eth    Hco 2431   3.183   2.257   6.878 -0.8335  1.5556 -2.6957
   29Eth    Hco 2432   3.027   2.242   6.808  0.3547  1.8301  0.5536
   29Eth     Ch 2433   3.101   2.060   6.889  0.8434  0.2644  0.0970
   29Eth    Hcc 2434   3.174   2.025   6.962  2.9315 -0.6440 -2.3604
   29Eth    Hcc 2435   3.135   2.018   6.794 -0.4215 -0.5157 -0.0343
   29Eth    Hcc 2436   3.006   2.010   6.910  1.8546 -1.5002  0.6053
   30Eth     Ho 2437   2.268   0.251   9.915  0.1300 -0.2103  0.0414
   30Eth     Oh 2438   2.227   0.206   9.844 -0.5065  0.7772 -0.2326
   30Eth     Co 2439   2.088   0.246   9.856  0.5617  0.5899  0.1410
   30Eth    Hco 2440   2.077   0.354   9.847  2.7236  0.8395  0.0795
   30Eth    Hco 2441   2.063   0.227   9.960  0.4202 -0.6643 -0.1247
   30Eth     Ch 2442   2.003   0.161   9.760 -0.3092 -0.7868 -0.4361
   30Eth    Hcc 2443   1.908   0.129   9.804  0.3060 -1.0919  0.6730
   30Eth    Hcc 2444   2.061   0.072   9.736  0.4303 -0.6105  0.7064
   30Eth    Hcc 2445   1.988   0.217   9.667  2.8681 -1.7165 -1.5626
   31Eth     Ho 2446   1.353   1.566   3.174 -0.2570 -0.4030  0.0703
   31Eth     Oh 2447   1.267   1.602   3.188 -0.3029 -0.4695 -0.0425
   31Eth     Co 2448   1.281   1.705   3.284  0.0881 -0.1362  0.5596
   31Eth    Hco 2449   1.331   1.783   3.227  2.4703  0.1521  2.9411
   31Eth    Hco 2450   1.345   1.658   3.359  0.8147  0.9623  0.6312
   31Eth     Ch 2451   1.143   1.749   3.329 -0.3539 -0.2398  0.5629
   31Eth    Hcc 2452   1.080   1.786   3.248  0.5497  1.0253  0.4175
   31Eth    Hcc 2453   1.174   1.830   3.395  3.5063  0.3182 -1.7306
   31Eth    Hcc 2454   1.085   1.666   3.368 -1.4720  0.1339 -0.2887
   32Eth     Ho 2455   0.355   2.691   5.565  1.4908 -1.8650  1.9734
   32Eth     Oh 2456   0.275   2.667   5.608  0.1115 -0.3188  0.3550
   32Eth     Co 2457   0.241   2.545   5.555 -0.6277  0.3169 -0.1302
   32Eth    Hco 2458   0.322   2.472   5.547 -0.6116  0.5081 -1.7616
   32Eth    Hco 2459   0.202   2.574   5.458  0.9361  1.3655 -0.4481
   32Eth     Ch 2460   0.110   2.497   5.627  0.1744  0.0834  0.5142
   32Eth    Hcc 2461   0.035   2.576   5.636  0.3778  0.2313  0.9291
   32Eth    Hcc 2462   0.129   2.452   5.724  1.1399  1.1792  0.8483
   32Eth    Hcc 2463   0.055   2.420   5.573  2.4489 -0.7066 -0.7419
   33Eth     Ho 2464   1.428   1.437   1.445  0.0215  0.1453 -0.5725
   33Eth     Oh 2465   1.383   1.362   1.409  0.0630 -0.1444 -0.0135
   33Eth     Co 2466   1.246   1.392   1.417  0.1950 -0.2684  0.4976
   33Eth    Hco 2467   1.226   1.475   1.349  0.8993 -1.5619 -1.3373
   33Eth    Hco 2468   1.214   1.424   1.516 -0.7744  1.1916 -0.2710
   33Eth     Ch 2469   1.165   1.272   1.378 -0.3222 -0.8577  0.3737
   33Eth    Hcc 2470   1.172   1.261   1.270 -1.5546  0.2612  0.1815
   33Eth    Hcc 2471   1.064   1.277   1.417 -0.2621 -3.1745  0.8903
   33Eth    Hcc 2472   1.198   1.175   1.417 -0.2490 -0.4595  1.3109
   34Eth     Ho 2473   0.941   1.887   5.258 -0.4920  0.7963  0.1672
   34Eth     Oh 2474   0.965   1.894   5.168 -0.0329 -0.2423  0.1992
   34Eth     Co 2475   0.916   1.772   5.115  0.9694 -0.4668  0.5659
   34Eth    Hco 2476   0.810   1.761   5.140  0.7887  0.7462  0.3874
   34Eth    Hco 2477   0.964   1.696   5.176  1.7729 -0.5848 -0.2075
   34Eth     Ch 2478   0.941   1.767   4.966  0.2057  0.5631  0.6243
   34Eth    Hcc 2479   0.914   1.673   4.918  0.0470  0.5060  0.8238
   34Eth    Hcc 2480   1.042   1.800   4.942  0.7017 -2.5794 -2.0057
   34Eth    Hcc 2481   0.868   1.818   4.904 -0.0825 -0.8417 -0.2213
   35Eth     Ho 2482   1.759   1.105   4.548  0.7489  0.0768  0.1747
   35Eth     Oh 2483   1.755   1.143   4.462  0.0617  0.0914  0.2103
   35Eth     Co 2484   1.663   1.251   4.459 -0.0363 -0.3489 -0.0211
   35Eth    Hco 2485   1.710   1.319   4.529 -0.7839  1.0898 -0.8778
   35Eth    Hco 2486   1.565   1.222   4.498  0.3404 -0.8611  0.5359
   35Eth     Ch 2487   1.635   1.309   4.323  0.3579  0.0171  0.0472
   35Eth    Hcc 2488   1.599   1.412   4.319  1.8840  0.5567 -0.1022
   35Eth    Hcc 2489   1.560   1.245   4.275  0.0090  0.2642  0.2613
   35Eth    Hcc 2490   1.721   1.293   4.258  0.5913  2.3132 -0.2432
   36Eth     Ho 2491   0.949   2.027   2.445 -0.1530 -0.5990  1.9274
   36Eth     Oh 2492   1.034   1.986   2.455 -0.0145 -0.3991  1.5603
   36Eth     Co 2493   1.105   2.070   2.540  0.1496 -0.2775  0.3626
   36Eth    Hco 2494   1.035   2.127   2.601  1.1507  1.0843  0.2737
   36Eth    Hco 2495   1.151   2.146   2.476  1.1110 -1.2653 -0.1437
   36Eth     Ch 2496   1.200   1.984   2.612 -0.7594  0.2105 -0.1156
   36Eth    Hcc 2497   1.279   1.948   2.545 -1.7810 -3.2758  0.4538
   36Eth    Hcc 2498   1.146   1.894   2.644  3.2074 -2.3908 -0.2718
   36Eth    Hcc 2499   1.255   2.027   2.696 -1.3462 -0.9914  0.9105
   37Eth     Ho 2500   2.188   1.590   7.119 -0.8302  0.6669 -2.4578
   37Eth     Oh 2501   2.102   1.589   7.158  0.4468  0.3926  0.4619
   37Eth     Co 2502   2.016   1.652   7.054  0.1612  0.0053 -0.8723
   37Eth    Hco 2503   2.028   1.604   6.957 -4.3631  1.2204 -2.1781
   37Eth    Hco 2504   2.047   1.755   7.034  1.1574 -0.0829  0.2124
   37Eth     Ch 2505   1.878   1.646   7.116 -0.0317  0.4352 -0.6893
   37Eth    Hcc 2506   1.808   1.714   7.068 -1.7387 -0.3196  0.6965
   37Eth    Hcc 2507   1.876   1.676   7.221  0.7760 -0.6654 -0.3512
   37Eth    Hcc 2508   1.848   1.542   7.120  2.0925 -0.1529  0.8673
   38Eth     Ho 2509   3.117   1.120   9.583  2.4817 -0.6874 -0.5531
   38Eth     Oh 2510   3.151   1.205   9.562 -0.4723  0.5804 -0.4924
   38Eth     Co 2511   3.119   1.304   9.656 -0.3087  0.2300 -0.7295
   38Eth    Hco 2512   3.188   1.299   9.740 -3.2153  0.7553  1.7349
   38Eth    Hco 2513   3.015   1.299   9.688  0.0900 -0.3440  0.4822
   38Eth     Ch 2514   3.141   1.441   9.581  0.1565 -0.3733  0.0206
   38Eth    Hcc 2515   3.083   1.517   9.634 -1.7969 -0.5359 -1.8306
   38Eth    Hcc 2516   3.113   1.444   9.476 -1.6578  0.8436  0.5064
   38Eth    Hcc 2517   3.243   1.476   9.595  0.0887  0.3091 -1.1336
   39Eth     Ho 2518   3.302   3.034   9.959  0.1687  0.2050  0.3175
   39Eth     Oh 2519   3.263   2.970   9.903  0.6953 -0.3115  0.5467
   39Eth     Co 2520   3.128   3.002   9.908 -0.3724 -0.1211 -0.5489
   39Eth    Hco 2521   3.117   3.103   9.868  4.1209 -0.1550 -2.2370
   39Eth    Hco 2522   3.107   3.005  10.015 -0.6717  3.9416 -0.6655
   39Eth     Ch 2523   3.045   2.903   9.841 -0.5667  0.0455 -0.1094
   39Eth    Hcc 2524   3.025   2.811   9.896 -1.5093 -0.5550 -1.4341
   39Eth    Hcc 2525   3.073   2.888   9.737  0.6110 -0.3368  0.2549
   39Eth    Hcc 2526   2.950   2.955   9.848  0.2438  1.5604 -0.2294
   40Eth     Ho 2527   0.832   1.197   2.292  1.0366  0.5653 -1.8479
   40Eth     Oh 2528   0.908   1.214   2.344  0.0181 -0.1302 -0.0850
   40Eth     Co 2529   1.013   1.132   2.299  0.4970  0.3503 -0.5658
   40Eth    Hco 2530   1.047   1.153   2.198  1.2152  0.0878 -0.3759
   40Eth    Hco 2531   0.983   1.027   2.296  2.0025 -0.0929 -0.3707
   40Eth     Ch 2532   1.132   1.149   2.379 -0.0715 -0.2506  0.2055
   40Eth    Hcc 2533   1.110   1.137   2.485  1.0846 -1.4505  0.3270
   40Eth    Hcc 2534   1.182   1.243   2.359 -2.7414  0.8542 -1.5047
   40Eth    Hcc 2535   1.211   1.081   2.345  0.6697  0.9012 -0.4269
   41Eth     Ho 2536   0.647   3.206   9.878 -0.5300  0.2467  1.4284
   41Eth     Oh 2537   0.562   3.232   9.848 -0.0511  0.4951  0.2804
   41Eth     Co 2538   0.589   3.338   9.763 -0.3044 -0.3466  0.4630
   41Eth    Hco 2539   0.682   3.321   9.708  0.9556  0.5006  2.2848
   41Eth    Hco 2540   0.606   3.420   9.832  0.7160  0.9142 -1.2550
   41Eth     Ch 2541   0.468   3.346   9.674  0.1764  0.2980 -0.1032
   41Eth    Hcc 2542   0.451   3.249   9.628  1.6722 -0.2086  0.3951
   41Eth    Hcc 2543   0.475   3.425   9.599  0.8066  0.0449 -0.3151
   41Eth    Hcc 2544   0.378   3.359   9.734 -0.2043 -1.2122 -0.3236
   42Eth     Ho 2545   0.731   0.211   1.374  0.5435 -0.0830 -0.5654
   42Eth     Oh 2546   0.736   0.170   1.459  0.5165  0.0916 -0.4776
   42Eth     Co 2547   0.872   0.160   1.498  0.2164  0.6079 -0.3505
   42Eth    Hco 2548   0.893   0.259   1.537 -0.0010  0.5398 -0.0646
   42Eth    Hco 2549   0.932   0.143   1.409 -0.3151 -2.0006 -0.2527
   42Eth     Ch 2550   0.895   0.051   1.606  0.0924  0.0737  0.0299
   42Eth    Hcc 2551   0.992   0.063   1.654 -0.4350 -0.6777  1.2937
   42Eth    Hcc 2552   0.885  -0.052   1.572  2.8532 -0.7967  1.6831
   42Eth    Hcc 2553   0.816   0.060   1.680 -1.8006 -0.7338 -1.8208
   43Eth     Ho 2554   1.163   2.845   1.563  0.6606 -0.7397  0.6482
   43Eth     Oh 2555   1.128   2.871   1.646 -0.3421  0.3048 -0.0901
   43Eth     Co 2556   1.173   2.766   1.725  0.4487 -0.7746  0.0999
   43Eth    Hco 2557   1.282   2.777   1.720  0.4732 -0.9026  0.3554
   43Eth    Hco 2558   1.144   2.673   1.677 -0.8397 -0.9103  1.1062
   43Eth     Ch 2559   1.112   2.795   1.866 -0.2207 -0.0098  0.0844
   43Eth    Hcc 2560   1.123   2.708   1.931 -1.5759  0.0287  0.3784
   43Eth    Hcc 2561   1.006   2.820   1.856 -0.2876 -0.1923  0.3409
   43Eth    Hcc 2562   1.152   2.874   1.930  0.4702  0.1064 -0.4881
   44Eth     Ho 2563   1.797   0.700   4.098  0.0931 -1.2151  1.7558
   44Eth     Oh 2564   1.793   0.787   4.133  0.2843 -0.2690 -0.5082
   44Eth     Co 2565   1.649   0.789   4.160  0.3577 -0.4619 -0.2440
   44Eth    Hco 2566   1.612   0.710   4.225  0.3628 -0.1524  0.1373
   44Eth    Hco 2567   1.598   0.780   4.064  0.2998  0.4004 -0.2980
   44Eth     Ch 2568   1.619   0.937   4.208  0.4176 -0.7604 -0.2881
   44Eth    Hcc 2569   1.512   0.949   4.228  0.9137  0.3063  1.8714
   44Eth    Hcc 2570   1.650   1.013   4.136 -2.2862 -0.6837 -1.4285
   44Eth    Hcc 2571   1.667   0.969   4.300  0.7889 -1.8258 -0.1063
   45Eth     Ho 2572   1.142   0.813   1.386  0.9993  2.4233  0.2122
   45Eth     Oh 2573   1.202   0.761   1.437 -0.0276  0.2898 -0.7050
   45Eth     Co 2574   1.211   0.828   1.563 -0.3251 -0.6323  0.2861
   45Eth    Hco 2575   1.144   0.780   1.634 -0.5145 -1.3437 -0.3682
   45Eth    Hco 2576   1.180   0.930   1.539 -0.8378 -0.9983 -0.6105
   45Eth     Ch 2577   1.358   0.823   1.620 -0.4785  0.0868  0.2417
   45Eth    Hcc 2578   1.365   0.855   1.724  0.0162  0.4002  0.1151
   45Eth    Hcc 2579   1.427   0.884   1.561 -1.3290  1.5510  0.7182
   45Eth    Hcc 2580   1.403   0.725   1.629 -0.2701  0.0890 -0.8101
   46Eth     Ho 2581   0.463   2.094   8.699 -0.7653  0.6611  1.6945
   46Eth     Oh 2582   0.401   2.044   8.648  0.6546  0.0986  0.4732
   46Eth     Co 2583   0.291   2.034   8.734  0.1697 -0.1250  0.3250
   46Eth    Hco 2584   0.228   2.122   8.739  0.7146  0.2340  0.9144
   46Eth    Hco 2585   0.332   2.017   8.833  1.3077 -0.5684 -0.2052
   46Eth     Ch 2586   0.196   1.924   8.687 -0.6496 -0.5117 -0.2398
   46Eth    Hcc 2587   0.253   1.834   8.662  0.0929  0.6084 -2.7533
   46Eth    Hcc 2588   0.146   1.949   8.593  1.7487 -1.6485 -1.8912
   46Eth    Hcc 2589   0.111   1.911   8.753 -0.0701 -0.3699  0.5427
   47Eth     Ho 2590   2.409   2.850   9.766  0.1645 -2.2849  0.1122
   47Eth     Oh 2591   2.320   2.880   9.774  0.7488 -0.2889 -0.6805
   47Eth     Co 2592   2.331   3.015   9.814 -0.7507  0.3687  0.1303
   47Eth    Hco 2593   2.324   3.075   9.723  0.7090  0.3564 -0.0131
   47Eth    Hco 2594   2.423   3.037   9.869 -1.0405  3.3498 -0.4884
   47Eth     Ch 2595   2.223   3.048   9.912 -0.4175  0.2787  0.9460
   47Eth    Hcc 2596   2.231   3.152   9.944 -0.5505 -0.0177  1.9782
   47Eth    Hcc 2597   2.223   2.984  10.000  1.0913  0.7693  1.3237
   47Eth    Hcc 2598   2.129   3.032   9.860 -0.6407  0.8687  1.1721
   48Eth     Ho 2599   1.914   2.978   6.172 -0.8906  0.0496  0.0514
   48Eth     Oh 2600   1.948   3.025   6.246  0.1693 -0.2771 -0.2152
   48Eth     Co 2601   2.017   3.144   6.207 -0.3068 -0.4927 -0.5121
   48Eth    Hco 2602   1.938   3.206   6.165 -0.4954 -0.8179 -0.6366
   48Eth    Hco 2603   2.073   3.112   6.120 -0.5503  0.9911 -1.2287
   48Eth     Ch 2604   2.092   3.210   6.322  0.4211  0.1571  0.0257
   48Eth    Hcc 2605   2.114   3.316   6.311  0.5645  0.2274  0.9630
   48Eth    Hcc 2606   2.187   3.158   6.334 -0.9099 -2.4142 -0.1518
   48Eth    Hcc 2607   2.034   3.193   6.412 -0.5000  0.8331 -0.4312
   49Eth     Ho 2608   0.256   0.214   8.334 -0.4699  1.0544 -0.9131
   49Eth     Oh 2609   0.289   0.174   8.255  0.2170 -0.4742  0.1283
   49Eth     Co 2610   0.398   0.089   8.295  0.4332  0.6875 -0.4104
   49Eth    Hco 2611   0.359   0.032   8.380  2.0108  0.2162  0.0061
   49Eth    Hco 2612   0.486   0.144   8.327  2.6000 -1.8227 -1.8197
   49Eth     Ch 2613   0.452  -0.007   8.184  0.2933  0.9138 -0.6498
   49Eth    Hcc 2614   0.477   0.044   8.091 -4.0416 -0.0676 -2.5048
   49Eth    Hcc 2615   0.390  -0.093   8.156  0.4588  1.0988 -1.5960
   49Eth    Hcc 2616   0.546  -0.045   8.224  0.1769  0.8120 -0.4691
   50Eth     Ho 2617   1.747   3.335   5.745 -0.3205 -0.1751  0.6020
   50Eth     Oh 2618   1.740   3.409   5.802 -0.2059  0.1595  0.1809
   50Eth     Co 2619   1.626   3.494   5.774 -0.1717 -0.4844  0.3835
   50Eth    Hco 2620   1.529   3.445   5.787 -1.2300  1.2543 -0.7829
   50Eth    Hco 2621   1.618   3.516   5.667 -0.0779 -0.9815  0.2733
   50Eth     Ch 2622   1.611   3.619   5.856  0.1511 -0.1211  0.2304
   50Eth    Hcc 2623   1.556   3.699   5.808 -0.3486  0.5099  1.8518
   50Eth    Hcc 2624   1.709   3.655   5.889 -0.2135  0.2063  0.9520
   50Eth    Hcc 2625   1.554   3.594   5.945  0.0526  1.3701  0.5981
   51Eth     Ho 2626   1.900   2.022   1.620 -1.4713 -0.4190  0.3597
   51Eth     Oh 2627   1.908   1.935   1.585  0.0969 -0.1242 -0.0820
   51Eth     Co 2628   2.043   1.898   1.553  0.1349 -0.7335 -0.4921
   51Eth    Hco 2629   2.120   1.930   1.622 -1.9488 -0.1485  1.6334
   51Eth    Hco 2630   2.074   1.954   1.464  0.8561 -0.9809 -0.3998
   51Eth     Ch 2631   2.047   1.749   1.524 -0.2352  0.1442  0.4626
   51Eth    Hcc 2632   2.153   1.725   1.533 -0.4471 -0.5219  1.2119
   51Eth    Hcc 2633   2.013   1.732   1.422 -1.7049 -0.0287  0.9740
   51Eth    Hcc 2634   1.996   1.692   1.602  0.0696  1.6371  1.7691
   52Eth     Ho 2635   1.413   0.166   2.430 -1.0826 -1.9511  2.0313
   52Eth     Oh 2636   1.469   0.097   2.400  0.6347  0.2548 -0.0241
   52Eth     Co 2637   1.399  -0.025   2.414  0.6341 -0.1121  0.4490
   52Eth    Hco 2638   1.306  -0.029   2.357  0.7629  1.3028  0.1098
   52Eth    Hco 2639   1.365  -0.048   2.515 -0.5880  0.0699  0.0888
   52Eth     Ch 2640   1.478  -0.145   2.366  0.1593  1.1980 -0.7585
   52Eth    Hcc 2641   1.429  -0.226   2.421  1.2901  1.3695  0.5401
   52Eth    Hcc 2642   1.582  -0.126   2.393  0.0880  2.4309 -1.3149
   52Eth    Hcc 2643   1.481  -0.158   2.258  0.3920  2.0816 -0.8595
   53Eth     Ho 2644   0.335   2.101   9.839  0.8408  0.8140  2.6791
   53Eth     Oh 2645   0.427   2.105   9.820  0.4592 -0.1928  0.4325
   53Eth     Co 2646   0.463   2.244   9.817 -0.0438  0.0200 -0.1435
   53Eth    Hco 2647   0.459   2.269   9.923 -0.8294  0.8753 -0.3719
   53Eth    Hco 2648   0.389   2.307   9.770 -0.9983 -0.7411  0.3291
   53Eth     Ch 2649   0.610   2.278   9.749  0.5615  0.4643  0.0419
   53Eth    Hcc 2650   0.592   2.284   9.642 -2.1125  0.0989  0.4381
   53Eth    Hcc 2651   0.684   2.202   9.775  0.5648 -0.0818 -1.5207
   53Eth    Hcc 2652   0.648   2.374   9.782 -1.3488  1.6230 -1.0497
   54Eth     Ho 2653   2.320   2.581   7.380  1.8590 -1.2241  0.1337
   54Eth     Oh 2654   2.289   2.544   7.461 -0.2209  0.3645  0.1040
   54Eth     Co 2655   2.343   2.420   7.498 -0.0842 -0.7844 -0.5808
   54Eth    Hco 2656   2.294   2.338   7.446  0.0296 -1.0740 -0.2285
   54Eth    Hco 2657   2.334   2.419   7.607 -1.2660 -0.9360 -0.6698
   54Eth     Ch 2658   2.496   2.429   7.482  0.2329  0.7057 -0.0702
   54Eth    Hcc 2659   2.550   2.514   7.523  2.6704 -0.8057 -0.0250
   54Eth    Hcc 2660   2.534   2.410   7.381 -0.8039 -1.3084 -0.1063
   54Eth    Hcc 2661   2.550   2.347   7.529  1.0214  0.5237 -1.2612
   55Eth     Ho 2662   1.696   0.511   2.507 -1.1591  0.3597  0.5384
   55Eth     Oh 2663   1.659   0.583   2.460 -0.2182  0.3952 -0.1710
   55Eth     Co 2664   1.682   0.547   2.326 -0.7682  0.3462  0.2147
   55Eth    Hco 2665   1.605   0.588   2.261 -2.7330 -1.4084  1.3695
   55Eth    Hco 2666   1.688   0.439   2.309 -0.2853  0.3576  0.2955
   55Eth     Ch 2667   1.826   0.606   2.289 -0.6411  0.4277  0.8943
   55Eth    Hcc 2668   1.861   0.583   2.189  2.7440  2.2004  1.5936
   55Eth    Hcc 2669   1.906   0.588   2.362 -0.3097 -0.5341  0.3034
   55Eth    Hcc 2670   1.815   0.714   2.291 -1.4958  0.3356  2.7239
   56Eth     Ho 2671   2.449   2.439   1.390  0.3847  0.9395  0.6772
   56Eth     Oh 2672   2.402   2.403   1.463  0.0833 -0.0730 -0.0037
   56Eth     Co 2673   2.435   2.485   1.567  0.2773 -1.5195 -0.4385
   56Eth    Hco 2674   2.340   2.501   1.618  0.2434 -2.9700 -0.0297
   56Eth    Hco 2675   2.448   2.586   1.530 -3.0958  0.0098  2.2356
   56Eth     Ch 2676   2.554   2.432   1.638 -0.4065 -0.1340  0.0913
   56Eth    Hcc 2677   2.636   2.425   1.566 -0.6558 -0.8958 -0.1278
   56Eth    Hcc 2678   2.535   2.335   1.683  0.5673  0.2385  1.3060
   56Eth    Hcc 2679   2.582   2.504   1.714  0.4857 -0.7884  0.3948
   57Eth     Ho 2680   0.032   3.050   3.678  0.2699 -2.9289 -0.0965
   57Eth     Oh 2681   0.115   3.055   3.722  0.0599  0.3407  0.0775
   57Eth     Co 2682   0.157   2.923   3.736  0.1279  0.1655  0.5765
   57Eth    Hco 2683   0.166   2.862   3.646  0.2256 -0.2143  0.8396
   57Eth    Hco 2684   0.082   2.868   3.794  0.3004 -0.0444  0.6028
   57Eth     Ch 2685   0.290   2.919   3.814  0.1229  0.5953 -0.2259
   57Eth    Hcc 2686   0.341   2.822   3.810 -1.3412 -0.1804 -0.6674
   57Eth    Hcc 2687   0.281   2.936   3.921 -0.8274  1.3844 -0.4217
   57Eth    Hcc 2688   0.368   2.978   3.766 -0.1357 -0.2103 -1.6713
   58Eth     Ho 2689   0.866   2.984   8.837  0.9948 -0.4496  2.6455
   58Eth     Oh 2690   0.792   3.032   8.868 -0.0858 -0.0471 -0.3796
   58Eth     Co 2691   0.699   2.974   8.780 -0.3157  0.3324 -0.4052
   58Eth    Hco 2692   0.713   2.866   8.768  0.1632  0.4555 -0.9851
   58Eth    Hco 2693   0.726   3.011   8.682  0.8180 -1.3426 -0.7376
   58Eth     Ch 2694   0.561   2.995   8.828  0.0885 -0.1668  0.7808
   58Eth    Hcc 2695   0.488   2.939   8.770  1.3971  1.8203 -2.9501
   58Eth    Hcc 2696   0.532   3.100   8.816 -0.2075  0.0382  3.1227
   58Eth    Hcc 2697   0.545   2.949   8.925  0.1537 -3.0543 -0.5456
   59Eth     Ho 2698   1.824   2.898   9.499 -0.6716  0.6214 -0.7902
   59Eth     Oh 2699   1.750   2.858   9.456 -0.2440  0.0043 -0.9586
   59Eth     Co 2700   1.715   2.969   9.370 -0.0278  0.4133 -0.2763
   59Eth    Hco 2701   1.643   2.937   9.295  1.9352 -2.5489 -1.0014
   59Eth    Hco 2702   1.801   3.001   9.312  1.4820 -0.6755  1.2902
   59Eth     Ch 2703   1.674   3.091   9.446 -0.9757  0.1349 -0.3113
   59Eth    Hcc 2704   1.676   3.174   9.375 -1.3823  0.4943  0.0950
   59Eth    Hcc 2705   1.735   3.121   9.531 -1.3085  0.1158 -0.0633
   59Eth    Hcc 2706   1.574   3.077   9.487 -1.5149  0.8966 -1.3439
   60Eth     Ho 2707   1.979   1.046   1.572 -1.4060 -0.9177 -1.4746
   60Eth     Oh 2708   2.047   1.058   1.508 -0.3570  0.3531 -0.1812
   60Eth     Co 2709   2.146   0.956   1.510 -0.1497 -0.0912  0.8561
   60Eth    Hco 2710   2.104   0.861   1.543 -0.9934  0.5974  1.7836
   60Eth    Hco 2711   2.224   0.967   1.585 -0.7116  3.8639  0.9730
   60Eth     Ch 2712   2.213   0.945   1.376  0.2888 -0.0368  0.1500
   60Eth    Hcc 2713   2.149   0.928   1.289 -0.1954  0.7176  0.3460
   60Eth    Hcc 2714   2.303   0.883   1.379 -1.0112 -1.9346  0.6911
   60Eth    Hcc 2715   2.245   1.048   1.357  0.4654 -0.3171 -1.1038
   61Eth     Ho 2716   1.300   2.273   6.022  0.0960 -0.5381 -0.8199
   61Eth     Oh 2717   1.271   2.284   5.933 -0.1502 -0.3966 -0.7230
   61Eth     Co 2718   1.331   2.185   5.861 -1.1165  0.1000 -0.7616
   61Eth    Hco 2719   1.316   2.094   5.918  2.5613 -2.0695 -2.9804
   61Eth    Hco 2720   1.439   2.192   5.847 -1.1380  2.0293 -0.0752
   61Eth     Ch 2721   1.284   2.170   5.720  0.1746 -0.4287 -0.3132
   61Eth    Hcc 2722   1.357   2.101   5.677  0.4739 -1.8637  2.4195
   61Eth    Hcc 2723   1.306   2.263   5.668 -1.2922 -0.2740 -0.6742
   61Eth    Hcc 2724   1.180   2.142   5.706 -0.5956  0.9161  2.5403
   62Eth     Ho 2725   2.487   2.902   8.345  0.9311  2.7724 -0.3992
   62Eth     Oh 2726   2.446   2.927   8.426  0.4258  0.1038  0.2476
   62Eth     Co 2727   2.390   3.061   8.410 -0.4274 -0.6198  0.2750
   62Eth    Hco 2728   2.304   3.059   8.343  0.5847 -1.4173 -1.0231
   62Eth    Hco 2729   2.457   3.136   8.369 -3.0702  0.1902 -2.7704
   62Eth     Ch 2730   2.336   3.106   8.549  0.6460 -0.3085 -0.7090
   62Eth    Hcc 2731   2.272   3.193   8.550 -0.0106 -0.7952  1.3457
   62Eth    Hcc 2732   2.414   3.127   8.622  0.7239 -0.3882 -0.7686
   62Eth    Hcc 2733   2.284   3.022   8.596  0.3567 -0.9827 -2.1889
   63Eth     Ho 2734   1.293   2.102   8.817 -2.3463 -1.4271 -0.4953
   63Eth     Oh 2735   1.325   2.025   8.861  0.0681  0.0136  0.3952
   63Eth     Co 2736   1.346   1.940   8.755  0.3227 -0.0201  0.7812
   63Eth    Hco 2737   1.412   1.991   8.684  0.9627  0.3103  1.6057
   63Eth    Hco 2738   1.246   1.925   8.715  1.2392 -0.9693 -1.2331
   63Eth     Ch 2739   1.392   1.816   8.822 -0.2712  0.2691  0.1044
   63Eth    Hcc 2740   1.473   1.842   8.891  0.0851  1.6303 -0.8110
   63Eth    Hcc 2741   1.429   1.744   8.750  1.1911  2.0351 -0.9575
   63Eth    Hcc 2742   1.319   1.776   8.892  0.1682  0.5154  0.7105
   64Eth     Ho 2743   2.648   0.524   6.809 -0.6752 -1.2428  1.9237
   64Eth     Oh 2744   2.722   0.527   6.868  0.5976 -0.5044  0.3398
   64Eth     Co 2745   2.760   0.390   6.883 -0.9496  0.7608  0.0186
   64Eth    Hco 2746   2.781   0.341   6.787 -1.8163  0.6596 -0.1262
   64Eth    Hco 2747   2.680   0.340   6.937  1.0623 -1.0666  1.3935
   64Eth     Ch 2748   2.880   0.378   6.984 -0.3966 -0.1856 -0.3411
   64Eth    Hcc 2749   2.845   0.436   7.069 -2.4146 -0.7041 -0.7920
   64Eth    Hcc 2750   2.971   0.423   6.943 -0.0500 -0.5175  0.0593
   64Eth    Hcc 2751   2.898   0.280   7.028  0.2811  0.6036  1.1612
   65Eth     Ho 2752   0.390   0.887   4.595  0.9737  1.0660  0.8974
   65Eth     Oh 2753   0.387   0.941   4.519 -0.1265  0.0044  0.1665
   65Eth     Co 2754   0.346   0.852   4.414 -0.5798  0.4367  0.0575
   65Eth    Hco 2755   0.336   0.750   4.449 -0.4763  0.3767 -0.0836
   65Eth    Hco 2756   0.423   0.855   4.336  0.3037  2.3981  0.9765
   65Eth     Ch 2757   0.207   0.900   4.368 -0.0357 -0.2428  0.2640
   65Eth    Hcc 2758   0.134   0.906   4.449 -1.2544  1.0040 -0.8776
   65Eth    Hcc 2759   0.156   0.838   4.294 -0.9189 -0.3194  0.9173
   65Eth    Hcc 2760   0.201   1.000   4.325  2.1582 -0.9892 -1.8874
   66Eth     Ho 2761   0.561   3.038   9.338 -2.8649  0.1059  1.1911
   66Eth     Oh 2762   0.582   2.963   9.391 -0.9929 -0.0487  0.2862
   66Eth     Co 2763   0.530   2.979   9.523 -0.1657 -0.0595 -0.1808
   66Eth    Hco 2764   0.583   3.042   9.594 -1.7770  2.4701 -1.1348
   66Eth    Hco 2765   0.523   2.881   9.569  0.3323  0.5640  1.2524
   66Eth     Ch 2766   0.381   3.014   9.503  0.3996 -0.3359 -0.4154
   66Eth    Hcc 2767   0.324   2.935   9.454  1.0551 -0.6814 -0.6313
   66Eth    Hcc 2768   0.370   3.109   9.450  0.6501 -0.0713  0.0088
   66Eth    Hcc 2769   0.346   3.032   9.604 -0.4517  2.6235 -1.1890
   67Eth     Ho 2770   2.925   2.431   5.438 -0.1868 -0.6432  0.0002
   67Eth     Oh 2771   2.837   2.406   5.420 -0.3599 -0.1306  0.1240
   67Eth     Co 2772   2.822   2.411   5.279  0.4076 -0.3151 -0.5835
   67Eth    Hco 2773   2.896   2.345   5.234  1.1595  1.7767 -2.5233
   67Eth    Hco 2774   2.858   2.511   5.253  1.3372 -0.3759  0.4470
   67Eth     Ch 2775   2.679   2.395   5.236 -0.4004 -0.1241 -0.2248
   67Eth    Hcc 2776   2.618   2.476   5.277 -2.0263 -1.5235  0.1970
   67Eth    Hcc 2777   2.642   2.298   5.271  0.5318 -0.7529 -0.9669
   67Eth    Hcc 2778   2.670   2.389   5.127  1.0871 -0.5323 -0.3377
   68Eth     Ho 2779   3.210   0.892   5.918  0.5593  0.7417 -0.2853
   68Eth     Oh 2780   3.223   0.869   6.009  0.7115 -0.0388 -0.5004
   68Eth     Co 2781   3.363   0.889   6.033 -0.1107 -0.7394 -1.0009
   68Eth    Hco 2782   3.403   0.978   5.986  1.5831 -1.4325 -0.9087
   68Eth    Hco 2783   3.418   0.809   5.983 -0.0931  0.1085 -2.3518
   68Eth     Ch 2784   3.385   0.892   6.182  0.6786  0.3531 -0.2703
   68Eth    Hcc 2785   3.343   0.973   6.241  1.0974  1.1832 -1.1058
   68Eth    Hcc 2786   3.490   0.918   6.197  0.5734  2.4315 -2.7366
   68Eth    Hcc 2787   3.378   0.795   6.231 -2.2247  0.7678  0.2343
   69Eth     Ho 2788   2.337   2.683   7.571  1.7007  0.9993 -1.8650
   69Eth     Oh 2789   2.341   2.763   7.620 -0.0024  0.0197 -0.0706
   69Eth     Co 2790   2.340   2.734   7.758  0.0815 -0.3227 -0.1202
   69Eth    Hco 2791   2.431   2.681   7.787  1.4137  1.5995 -0.7133
   69Eth    Hco 2792   2.256   2.665   7.775 -0.1826  0.2849  1.1188
   69Eth     Ch 2793   2.320   2.865   7.838 -0.7038  1.3677  0.8582
   69Eth    Hcc 2794   2.237   2.925   7.800 -1.0622  0.7186  0.5973
   69Eth    Hcc 2795   2.408   2.928   7.824 -1.7704  2.2283 -2.5607
   69Eth    Hcc 2796   2.299   2.849   7.944 -0.9791  0.6286  0.6924
   70Eth     Ho 2797   2.977   3.041   8.443  0.7816  1.1932 -1.9572
   70Eth     Oh 2798   3.069   3.031   8.456  0.3352 -0.4631  0.1730
   70Eth     Co 2799   3.074   2.913   8.530 -0.0553 -0.0311 -0.4499
   70Eth    Hco 2800   3.028   2.827   8.481  1.9982 -2.1380  1.2337
   70Eth    Hco 2801   3.009   2.923   8.616  0.9593  0.0014  0.3217
   70Eth     Ch 2802   3.217   2.870   8.572 -0.5647 -1.2192  0.1251
   70Eth    Hcc 2803   3.276   2.843   8.485 -2.0706 -3.0069 -0.3618
   70Eth    Hcc 2804   3.223   2.792   8.648  1.2053 -0.9861  0.2446
   70Eth    Hcc 2805   3.284   2.948   8.608 -1.8922  0.6893 -1.4075
   71Eth     Ho 2806   0.423   2.851   2.732  4.4072  2.8325 -0.2768
   71Eth     Oh 2807   0.422   2.874   2.823  1.1395 -0.0375  0.5375
   71Eth     Co 2808   0.331   2.800   2.899  0.1040  0.3393 -0.0752
   71Eth    Hco 2809   0.319   2.705   2.846 -0.5823  1.3485 -1.7414
   71Eth    Hco 2810   0.235   2.850   2.906 -0.9352 -1.7340  0.7973
   71Eth     Ch 2811   0.387   2.786   3.040 -0.2375 -0.4489 -0.5096
   71Eth    Hcc 2812   0.475   2.723   3.043 -0.9569 -1.5952 -2.2439
   71Eth    Hcc 2813   0.323   2.739   3.115 -0.1094  1.7397  1.0174
   71Eth    Hcc 2814   0.413   2.884   3.079  0.8600 -0.7269 -0.5436
   72Eth     Ho 2815   0.371   0.614   7.746 -0.4385 -0.0664  0.3066
   72Eth     Oh 2816   0.315   0.669   7.797 -0.6490  0.0518 -0.0525
   72Eth     Co 2817   0.356   0.804   7.806 -0.2963 -0.3565  0.3154
   72Eth    Hco 2818   0.319   0.857   7.717 -2.4051 -1.9700  0.1994
   72Eth    Hco 2819   0.464   0.807   7.819 -0.2121  1.2852 -0.5275
   72Eth     Ch 2820   0.302   0.864   7.937 -0.0954  0.0292 -0.3215
   72Eth    Hcc 2821   0.367   0.850   8.023  0.5346 -0.5847 -0.8969
   72Eth    Hcc 2822   0.198   0.853   7.967  0.1694 -2.2680 -0.1610
   72Eth    Hcc 2823   0.316   0.972   7.936 -0.4288  0.0704 -1.5807
   73Eth     Ho 2824   1.131   2.144   1.983 -0.4913 -1.1100  1.9430
   73Eth     Oh 2825   1.122   2.054   1.955  0.0536 -0.4668 -0.4814
   73Eth     Co 2826   1.005   2.000   2.010 -0.0801  0.6181  0.2755
   73Eth    Hco 2827   0.914   2.058   1.998  1.2184  2.3041 -1.8542
   73Eth    Hco 2828   1.008   1.995   2.119 -2.5867 -0.5077  0.3202
   73Eth     Ch 2829   0.980   1.867   1.935  0.0684  0.3947 -0.6744
   73Eth    Hcc 2830   1.068   1.806   1.952 -0.4492 -0.6537 -1.6689
   73Eth    Hcc 2831   0.981   1.872   1.826 -2.6388 -0.0353 -0.7585
   73Eth    Hcc 2832   0.888   1.815   1.964  1.7462 -1.6236  1.2296
   74Eth     Ho 2833   1.478   0.051   4.361  1.1862  1.2907 -0.2365
   74Eth     Oh 2834   1.523   0.025   4.440 -0.0098 -0.2372 -0.0418
   74Eth     Co 2835   1.451  -0.072   4.518  0.1804  0.0204  0.2498
   74Eth    Hco 2836   1.375  -0.024   4.580  0.3723  0.5185  0.0998
   74Eth    Hco 2837   1.523  -0.125   4.581  0.8269 -0.6745 -1.0407
   74Eth     Ch 2838   1.379  -0.165   4.414 -0.3250 -0.3452 -0.1956
   74Eth    Hcc 2839   1.301  -0.118   4.355  0.2895  2.3685  1.0615
   74Eth    Hcc 2840   1.332  -0.248   4.467  0.8121 -0.6790  0.3074
   74Eth    Hcc 2841   1.443  -0.206   4.336  1.3971  2.0360 -0.1223
   75Eth     Ho 2842   2.145   2.815   7.582  0.8986  2.0506  0.3370
   75Eth     Oh 2843   2.072   2.864   7.549 -0.4148 -0.0939 -0.0152
   75Eth     Co 2844   1.956   2.843   7.629 -0.7022  0.2281  0.1631
   75Eth    Hco 2845   1.963   2.891   7.727 -0.7098  1.2532 -0.3269
   75Eth    Hco 2846   1.938   2.738   7.653 -0.1446  0.0127 -0.3816
   75Eth     Ch 2847   1.835   2.906   7.562 -0.6295  0.5673 -0.1319
   75Eth    Hcc 2848   1.841   3.014   7.554  1.5587  0.5135  0.4383
   75Eth    Hcc 2849   1.740   2.879   7.608 -0.2000 -1.8795 -0.6205
   75Eth    Hcc 2850   1.818   2.872   7.460  0.1658  0.3724 -0.2057
   76Eth     Ho 2851   1.663   1.051   9.095 -0.9446 -1.6906  0.1127
   76Eth     Oh 2852   1.731   1.016   9.149 -0.1078  0.4133  0.4492
   76Eth     Co 2853   1.773   0.896   9.074 -0.2529 -0.0912 -0.3596
   76Eth    Hco 2854   1.804   0.930   8.975  0.1900 -0.4181 -0.3336
   76Eth    Hco 2855   1.684   0.833   9.077 -0.3638  0.0651 -0.3854
   76Eth     Ch 2856   1.878   0.813   9.151  0.3654  0.0726  0.5563
   76Eth    Hcc 2857   1.966   0.873   9.172  0.1544  0.5463  0.1163
   76Eth    Hcc 2858   1.909   0.727   9.093  1.2643  0.5766  0.2834
   76Eth    Hcc 2859   1.849   0.791   9.253 -0.3681 -3.0315 -0.2780
   77Eth     Ho 2860   0.878   2.434   8.842 -0.4110 -0.4947  0.2559
   77Eth     Oh 2861   0.808   2.469   8.791  0.0387  0.5464  0.3381
   77Eth     Co 2862   0.758   2.575   8.869  0.2485 -0.5862 -0.0686
   77Eth    Hco 2863   0.824   2.655   8.836 -2.4959  0.6743 -2.8158
   77Eth    Hco 2864   0.769   2.545   8.973  1.1467 -0.8327 -0.2275
   77Eth     Ch 2865   0.611   2.605   8.835  0.3326  0.4454 -1.1195
   77Eth    Hcc 2866   0.542   2.529   8.871  1.1511  0.5886  0.8133
   77Eth    Hcc 2867   0.610   2.622   8.727 -1.0196 -1.0733 -1.3639
   77Eth    Hcc 2868   0.590   2.698   8.889 -0.5314 -0.2687 -0.2031
   78Eth     Ho 2869   1.430   1.733   2.634  1.4907 -3.0696  0.4285
   78Eth     Oh 2870   1.398   1.729   2.722 -0.1403 -1.0047 -0.0395
   78Eth     Co 2871   1.520   1.693   2.797  0.6930  0.4480 -0.6276
   78Eth    Hco 2872   1.607   1.740   2.752 -0.4256  3.0817 -0.1556
   78Eth    Hco 2873   1.535   1.585   2.796 -4.5403 -0.4558  1.9041
   78Eth     Ch 2874   1.527   1.742   2.946  0.0312 -0.1708 -1.0553
   78Eth    Hcc 2875   1.516   1.851   2.949 -4.3123 -0.4750 -2.1975
   78Eth    Hcc 2876   1.611   1.715   3.010 -1.1130 -0.4148  0.3685
   78Eth    Hcc 2877   1.438   1.711   3.001  0.9043 -0.2798  0.3154
   79Eth     Ho 2878   1.346   0.669   3.585 -2.5337 -0.7791  0.8734
   79Eth     Oh 2879   1.368   0.597   3.529 -0.1070  0.2745  0.3831
   79Eth     Co 2880   1.311   0.643   3.409 -0.0104 -0.4004  0.1819
   79Eth    Hco 2881   1.360   0.735   3.378  0.5998 -0.3400  1.2846
   79Eth    Hco 2882   1.206   0.671   3.417 -0.0380 -0.3749 -0.2784
   79Eth     Ch 2883   1.337   0.539   3.305 -0.4049 -0.2507  0.2004
   79Eth    Hcc 2884   1.282   0.447   3.324 -1.8193  0.8156  1.3795
   79Eth    Hcc 2885   1.441   0.511   3.322  0.1687  1.3404 -0.5821
   79Eth    Hcc 2886   1.344   0.566   3.199  1.7006  0.6791  0.5500
   80Eth     Ho 2887   0.510   2.119   5.097 -0.8503 -0.7135  0.4669
   80Eth     Oh 2888   0.475   2.036   5.070  0.5279 -0.9262 -0.7724
   80Eth     Co 2889   0.578   1.964   5.004 -0.2135  0.0398 -0.5845
   80Eth    Hco 2890   0.673   1.942   5.052 -0.3497 -0.4837 -0.5473
   80Eth    Hco 2891   0.603   2.038   4.928 -0.0545  1.2683  0.6577
   80Eth     Ch 2892   0.532   1.836   4.941 -0.6192  0.0312  0.3420
   80Eth    Hcc 2893   0.613   1.773   4.907 -0.4637  0.3876  0.0440
   80Eth    Hcc 2894   0.481   1.850   4.846  0.1048 -0.2454 -0.0899
   80Eth    Hcc 2895   0.476   1.774   5.011  1.8815 -0.7405  1.7265
   81Eth     Ho 2896   1.832   2.320   5.392 -0.1298  1.3441 -1.3299
   81Eth     Oh 2897   1.870   2.264   5.326 -0.1963 -0.0681 -0.1902
   81Eth     Co 2898   1.912   2.341   5.211  0.1367 -0.2327  0.2567
   81Eth    Hco 2899   1.836   2.340   5.133  0.9840  1.4477 -0.6290
   81Eth    Hco 2900   1.998   2.296   5.163 -0.8073 -1.4424 -0.3451
   81Eth     Ch 2901   1.932   2.491   5.256 -0.3018 -0.2644 -0.4060
   81Eth    Hcc 2902   1.837   2.543   5.268 -1.6371 -2.1682 -2.3473
   81Eth    Hcc 2903   1.965   2.553   5.173 -2.3220 -0.0728 -1.1065
   81Eth    Hcc 2904   1.999   2.521   5.336 -1.4750  1.6412 -0.1042
   82Eth     Ho 2905   1.351   0.023   3.454  0.1684 -0.7329  0.5873
   82Eth     Oh 2906   1.408   0.062   3.517 -0.1479  1.0341 -0.2053
   82Eth     Co 2907   1.382   0.197   3.517  0.4082  0.3989 -0.0092
   82Eth    Hco 2908   1.279   0.216   3.549  0.9145 -0.1228  2.0032
   82Eth    Hco 2909   1.396   0.240   3.418 -3.7344 -0.5667 -1.1509
   82Eth     Ch 2910   1.484   0.241   3.625  0.0590  0.2556  0.5953
   82Eth    Hcc 2911   1.464   0.209   3.727  3.0737 -1.3708  0.7267
   82Eth    Hcc 2912   1.495   0.349   3.623  1.1689  0.1413 -0.9152
   82Eth    Hcc 2913   1.584   0.212   3.592 -0.9705 -1.5439 -1.0281
   83Eth     Ho 2914   0.611   1.071   5.376  1.2796 -1.7146 -0.5435
   83Eth     Oh 2915   0.649   1.093   5.292  0.5983  0.1011 -0.4135
   83Eth     Co 2916   0.557   1.175   5.224 -0.2805  0.1953 -0.2496
   83Eth    Hco 2917   0.542   1.275   5.264 -2.3328  0.2436 -1.0783
   83Eth    Hco 2918   0.461   1.124   5.220 -0.6136  0.7425  0.6152
   83Eth     Ch 2919   0.593   1.187   5.084  0.2932 -0.2724 -0.4749
   83Eth    Hcc 2920   0.655   1.276   5.076 -0.1804 -0.0445 -1.9060
   83Eth    Hcc 2921   0.511   1.212   5.017  1.7726  1.1367 -1.8128
   83Eth    Hcc 2922   0.639   1.092   5.056  0.2912 -0.3859 -0.0889
   84Eth     Ho 2923   1.928   2.006   8.213  1.6035 -1.0113 -0.0112
   84Eth     Oh 2924   1.910   1.976   8.301 -0.3003 -0.2091 -0.1130
   84Eth     Co 2925   1.962   2.082   8.394 -0.0059 -0.1077  0.5937
   84Eth    Hco 2926   1.929   2.173   8.345 -0.6349  0.3908  1.9380
   84Eth    Hco 2927   2.070   2.070   8.402 -0.4170 -2.1848  4.4456
   84Eth     Ch 2928   1.904   2.069   8.544 -0.6447  0.0668 -0.1406
   84Eth    Hcc 2929   1.796   2.081   8.551 -0.6983 -0.8292  0.8478
   84Eth    Hcc 2930   1.951   2.149   8.600 -0.2491  0.4380 -0.9997
   84Eth    Hcc 2931   1.926   1.971   8.588 -4.4106 -1.6225 -1.7968
   85Eth     Ho 2932   1.552   0.212   4.546 -0.5785  0.0394 -0.2173
   85Eth     Oh 2933   1.561   0.292   4.595 -0.0698 -0.0062 -0.2355
   85Eth     Co 2934   1.438   0.307   4.659 -0.0180  0.7424  0.9615
   85Eth    Hco 2935   1.355   0.280   4.594 -0.1267 -0.9329  1.7695
   85Eth    Hco 2936   1.419   0.411   4.684 -2.2025  0.4368  0.6030
   85Eth     Ch 2937   1.450   0.219   4.783  0.3977 -0.1592  0.4396
   85Eth    Hcc 2938   1.527   0.252   4.853 -1.5054  0.6761  2.1986
   85Eth    Hcc 2939   1.492   0.122   4.759 -0.1511  0.0355 -1.3768
   85Eth    Hcc 2940   1.360   0.212   4.843  0.1507  2.5134  0.4749
   86Eth     Ho 2941   3.055   2.276   3.755 -1.7911  1.4257 -1.8032
   86Eth     Oh 2942   3.017   2.316   3.830  0.1059  0.2146 -0.1299
   86Eth     Co 2943   2.979   2.448   3.789  0.1313 -0.1312 -0.6133
   86Eth    Hco 2944   2.877   2.443   3.750 -0.7084  0.2121  1.4549
   86Eth    Hco 2945   3.048   2.479   3.710 -0.1120 -1.5059 -1.3863
   86Eth     Ch 2946   2.991   2.552   3.902  0.6961 -0.6380  0.2428
   86Eth    Hcc 2947   2.901   2.560   3.963  0.7599 -0.7088  0.3455
   86Eth    Hcc 2948   3.005   2.649   3.854  1.2852 -0.8636 -0.0406
   86Eth    Hcc 2949   3.071   2.525   3.971  2.2654  1.6327 -0.6436
   87Eth     Ho 2950   1.651   0.528   5.959  0.6648 -0.4917  0.8754
   87Eth     Oh 2951   1.729   0.571   5.929  0.3722 -0.4597  0.1353
   87Eth     Co 2952   1.685   0.662   5.832 -0.0209  0.7657 -0.5554
   87Eth    Hco 2953   1.670   0.759   5.881 -2.0201  0.7331 -1.0601
   87Eth    Hco 2954   1.597   0.625   5.779  2.0658 -4.3260 -0.7410
   87Eth     Ch 2955   1.799   0.696   5.736  0.5600 -0.4994  0.0154
   87Eth    Hcc 2956   1.886   0.725   5.794  1.0364 -1.5577 -0.1635
   87Eth    Hcc 2957   1.770   0.786   5.680 -0.4453 -1.3317 -0.8440
   87Eth    Hcc 2958   1.825   0.617   5.666  0.6458  0.8768 -1.5400
   88Eth     Ho 2959   2.099   0.584   2.693 -0.9565  0.8831 -2.6239
   88Eth     Oh 2960   2.058   0.500   2.695 -0.1513  0.4966  0.2565
   88Eth     Co 2961   1.937   0.510   2.770 -0.1374 -0.5461  0.0756
   88Eth    Hco 2962   1.884   0.602   2.746 -0.8367 -0.9428  0.0798
   88Eth    Hco 2963   1.958   0.530   2.875  0.5983 -0.0166 -0.1611
   88Eth     Ch 2964   1.846   0.382   2.741 -0.9814  0.1292 -0.5773
   88Eth    Hcc 2965   1.760   0.379   2.807 -0.2488  2.0925  0.5056
   88Eth    Hcc 2966   1.901   0.290   2.757 -1.6143 -0.0964  0.3342
   88Eth    Hcc 2967   1.808   0.385   2.639 -1.1260  2.5825 -0.4927
   89Eth     Ho 2968   2.130   0.235   9.238  1.7115  1.1520  0.8905
   89Eth     Oh 2969   2.133   0.291   9.162 -0.1485 -0.5688 -0.5110
   89Eth     Co 2970   2.135   0.210   9.045 -0.5353  0.0978 -0.1613
   89Eth    Hco 2971   2.032   0.186   9.020 -1.1640  2.4842  0.0043
   89Eth    Hco 2972   2.191   0.126   9.089  0.9958  1.8227  1.2975
   89Eth     Ch 2973   2.200   0.287   8.932 -0.1109  0.1879  0.3089
   89Eth    Hcc 2974   2.204   0.218   8.847 -0.0092 -1.7293  1.8280
   89Eth    Hcc 2975   2.302   0.314   8.958 -0.1948  2.8012 -1.8998
   89Eth    Hcc 2976   2.148   0.380   8.908  0.2097  0.3708  0.3219
   90Eth     Ho 2977   1.718   3.132   5.548 -2.3001 -1.0164  1.3492
   90Eth     Oh 2978   1.760   3.168   5.624 -0.4874 -0.3421  0.0661
   90Eth     Co 2979   1.843   3.068   5.666  0.0713 -0.0046  0.0135
   90Eth    Hco 2980   1.922   3.048   5.593  0.5422  2.2066 -0.1265
   90Eth    Hco 2981   1.781   2.980   5.677  0.5681 -0.3422  0.1171
   90Eth     Ch 2982   1.909   3.102   5.794 -0.0222  0.1539 -0.0724
   90Eth    Hcc 2983   1.991   3.030   5.792 -1.0716 -1.0987  0.8839
   90Eth    Hcc 2984   1.843   3.099   5.881 -0.0712 -1.1552 -0.1375
   90Eth    Hcc 2985   1.958   3.199   5.789 -1.3976  0.9275  0.9462
   91Eth     Ho 2986   3.178   1.958   9.806  1.1824 -0.8179 -0.2323
   91Eth     Oh 2987   3.236   1.961   9.880  1.0516 -0.0449 -0.1634
   91Eth     Co 2988   3.365   1.990   9.830 -0.7606  0.2570  0.0003
   91Eth    Hco 2989   3.423   2.023   9.917 -1.6293  1.0044  0.3014
   91Eth    Hco 2990   3.365   2.068   9.754 -0.2376  0.6840  0.4385
   91Eth     Ch 2991   3.427   1.867   9.758  0.6528  0.2436  0.4198
   91Eth    Hcc 2992   3.364   1.832   9.676  1.2798  0.4790 -0.1620
   91Eth    Hcc 2993   3.445   1.788   9.831 -0.7856 -1.5330 -1.1061
   91Eth    Hcc 2994   3.523   1.905   9.724  2.4942 -2.2750  2.5440
   92Eth     Ho 2995   0.046   2.027   2.811  0.4952  0.5138 -0.1967
   92Eth     Oh 2996  -0.031   2.073   2.783  0.3794  0.1256 -0.5100
   92Eth     Co 2997  -0.002   2.209   2.791 -0.1018  0.5245  0.3550
   92Eth    Hco 2998   0.099   2.229   2.754 -0.6900  0.8325 -1.1200
   92Eth    Hco 2999   0.003   2.234   2.897 -2.1054 -0.8987  0.8009
   92Eth     Ch 3000  -0.092   2.286   2.697 -0.4829 -0.4249  0.1012
   92Eth    Hcc 3001  -0.080   2.395   2.694  1.8752 -0.4739  4.2035
   92Eth    Hcc 3002  -0.196   2.275   2.729 -0.0131 -2.2237  1.0375
   92Eth    Hcc 3003  -0.089   2.258   2.591 -3.8129  1.0519 -0.4578
   93Eth     Ho 3004   3.194   1.714   2.706 -1.0553  0.3395 -0.4498
   93Eth     Oh 3005   3.161   1.634   2.743  0.1583 -0.1622 -0.4321
   93Eth     Co 3006   3.140   1.663   2.884  0.4643  1.2147  0.6353
   93Eth    Hco 3007   3.053   1.730   2.883 -1.9468 -1.7928  1.5689
   93Eth    Hco 3008   3.233   1.705   2.924  1.2224  2.3523 -2.2240
   93Eth     Ch 3009   3.111   1.545   2.972 -0.2164 -0.0697 -0.6391
   93Eth    Hcc 3010   3.113   1.570   3.078 -0.8842 -0.7084 -0.4777
   93Eth    Hcc 3011   3.181   1.463   2.956 -0.4139 -0.3979  0.1892
   93Eth    Hcc 3012   3.010   1.519   2.943 -1.6383  1.8449  2.3473
   94Eth     Ho 3013   0.581   0.132   6.049 -0.1574  1.3246  0.0359
   94Eth     Oh 3014   0.632   0.156   5.973 -0.2409  0.3511 -0.3284
   94Eth     Co 3015   0.541   0.211   5.873  0.6372  0.1907  0.3168
   94Eth    Hco 3016   0.458   0.268   5.914  1.2010 -0.6846  2.8107
   94Eth    Hco 3017   0.485   0.137   5.816 -0.9862  1.2939  0.4665
   94Eth     Ch 3018   0.642   0.289   5.783 -0.3457  0.4352 -0.8102
   94Eth    Hcc 3019   0.582   0.335   5.705  1.5279  2.1932 -1.2595
   94Eth    Hcc 3020   0.719   0.222   5.747  0.4730  1.0987 -0.3275
   94Eth    Hcc 3021   0.687   0.379   5.827 -0.9737  1.4108 -2.1234
   95Eth     Ho 3022   3.285   0.893   2.548  1.3722 -0.4702 -0.5840
   95Eth     Oh 3023   3.227   0.856   2.485  0.1474  0.9196 -0.3118
   95Eth     Co 3024   3.234   0.939   2.367  0.1847  0.2726 -0.2779
   95Eth    Hco 3025   3.326   0.899   2.324  0.4827 -0.8443  1.3245
   95Eth    Hco 3026   3.260   1.043   2.387 -0.9699  0.3599  0.7928
   95Eth     Ch 3027   3.120   0.928   2.267  0.3316 -0.6152  0.1968
   95Eth    Hcc 3028   3.149   0.979   2.175 -0.3984 -0.2576  0.1630
   95Eth    Hcc 3029   3.020   0.961   2.295  0.4297  1.0072 -1.3005
   95Eth    Hcc 3030   3.117   0.824   2.234  0.9774 -0.0412 -1.7325
   96Eth     Ho 3031   1.278   3.196   1.687  1.9090 -2.0555 -1.1044
   96Eth     Oh 3032   1.258   3.236   1.604  0.5130 -0.1266  0.1474
   96Eth     Co 3033   1.232   3.130   1.511  0.4207  0.1158  0.4369
   96Eth    Hco 3034   1.136   3.081   1.528  1.3755 -1.8491  0.3083
   96Eth    Hco 3035   1.313   3.056   1.516  0.7309  0.4179 -0.1284
   96Eth     Ch 3036   1.219   3.205   1.379  0.0615 -0.1271 -1.2452
   96Eth    Hcc 3037   1.212   3.143   1.289 -1.0376  0.9857 -1.9307
   96Eth    Hcc 3038   1.301   3.269   1.348 -0.2454  0.8722 -0.0018
   96Eth    Hcc 3039   1.132   3.270   1.386  1.3765  1.4997  0.4868
   97Eth     Ho 3040   0.059   2.477   9.397  1.9395  0.3697 -0.3556
   97Eth     Oh 3041   0.064   2.522   9.479 -0.1659  0.6358 -0.3456
   97Eth     Co 3042   0.064   2.423   9.578  0.2397  0.5077  0.2123
   97Eth    Hco 3043   0.134   2.341   9.558  1.5232  1.5467  0.3391
   97Eth    Hco 3044  -0.038   2.386   9.582  0.9202 -1.3606  0.8827
   97Eth     Ch 3045   0.104   2.467   9.716  0.2732 -0.3598  0.4198
   97Eth    Hcc 3046   0.050   2.556   9.751  1.4298  0.8025 -0.6765
   97Eth    Hcc 3047   0.211   2.486   9.711  0.7290 -2.6485  1.0596
   97Eth    Hcc 3048   0.085   2.382   9.781 -0.7441 -0.7689 -0.3915
   98Eth     Ho 3049   0.263   2.190   1.675  2.1852  0.4239 -0.8714
   98Eth     Oh 3050   0.238   2.221   1.590 -0.6188  0.0892 -0.2404
   98Eth     Co 3051   0.125   2.153   1.550 -0.1140  0.9242 -0.1256
   98Eth    Hco 3052   0.053   2.158   1.632 -0.0381  0.5059 -0.0325
   98Eth    Hco 3053   0.138   2.046   1.536  1.1492  1.1518 -0.8009
   98Eth     Ch 3054   0.056   2.215   1.434  0.7196  0.0994  0.0016
   98Eth    Hcc 3055  -0.045   2.177   1.425  1.1134 -0.8830 -0.2905
   98Eth    Hcc 3056   0.097   2.212   1.333 -0.9868  0.0472 -0.7052
   98Eth    Hcc 3057   0.053   2.320   1.463 -0.4217  0.3180 -0.8966
   99Eth     Ho 3058   0.661   3.065   6.963 -0.3267  0.1952  1.9083
   99Eth     Oh 3059   0.608   3.141   6.949  0.1596  0.1969 -0.0298
   99Eth     Co 3060   0.471   3.122   6.933 -0.3671  0.3312 -0.3654
   99Eth    Hco 3061   0.425   3.073   7.019  2.4650  0.5309  1.3335
   99Eth    Hco 3062   0.472   3.051   6.850 -2.5433 -3.4181  2.6218
   99Eth     Ch 3063   0.404   3.262   6.907  0.6817 -0.0109 -0.0718
   99Eth    Hcc 3064   0.461   3.321   6.836  1.4876  0.5342  1.0263
   99Eth    Hcc 3065   0.375   3.310   7.000 -2.1383  0.7123 -1.2706
   99Eth    Hcc 3066   0.312   3.248   6.850  1.3584 -1.3176 -0.8688
  100Eth     Ho 3067   2.829   0.846   1.547 -0.1717  0.1758  1.4470
  100Eth     Oh 3068   2.893   0.907   1.515 -0.6312  0.1877  0.5255
  100Eth     Co 3069   3.020   0.847   1.494  0.4016  0.2257 -0.3879
  100Eth    Hco 3070   3.010   0.753   1.440 -2.8417 -0.6345  1.6183
  100Eth    Hco 3071   3.062   0.815   1.589  0.9275 -1.9317 -1.3172
  100Eth     Ch 3072   3.113   0.956   1.433 -0.2280  0.1399 -0.1420
  100Eth    Hcc 3073   3.215   0.923   1.455 -0.1148 -0.4416 -1.4450
  100Eth    Hcc 3074   3.099   1.055   1.475  0.8454  1.4743 -2.8282
  100Eth    Hcc 3075   3.110   0.959   1.324  1.0485 -1.9518 -0.2813
  101Eth     Ho 3076   0.637   2.861   3.807  0.5412 -0.3814 -0.9524
  101Eth     Oh 3077   0.633   2.955   3.799 -0.0853 -0.3628 -0.4140
  101Eth     Co 3078   0.740   3.001   3.719 -0.3504  1.0187  0.0441
  101Eth    Hco 3079   0.804   2.915   3.698 -0.5098  0.8101  0.4068
  101Eth    Hco 3080   0.799   3.073   3.776 -0.7446  2.1771 -0.9871
  101Eth     Ch 3081   0.691   3.060   3.589 -0.1883  0.1856  0.1823
  101Eth    Hcc 3082   0.625   3.144   3.611  1.0331  0.9737  0.8782
  101Eth    Hcc 3083   0.633   2.993   3.525 -1.0408  1.1959 -0.1193
  101Eth    Hcc 3084   0.781   3.104   3.545 -1.1098  2.7416  0.8150
  102Eth     Ho 3085   3.110   2.472   2.192 -1.8407  0.2702 -1.6194
  102Eth     Oh 3086   3.059   2.402   2.229 -0.2254 -0.0364  0.1594
  102Eth     Co 3087   3.081   2.376   2.367 -0.0775  0.0841  0.0438
  102Eth    Hco 3088   3.061   2.473   2.411 -1.8644 -0.3883  0.2803
  102Eth    Hco 3089   3.187   2.359   2.389 -0.4166 -0.1833  1.5119
  102Eth     Ch 3090   3.012   2.255   2.417 -0.1211  0.0772 -0.5380
  102Eth    Hcc 3091   3.015   2.247   2.525  0.1981  1.4051 -0.4379
  102Eth    Hcc 3092   3.058   2.168   2.370  1.0364  0.2127  0.3491
  102Eth    Hcc 3093   2.906   2.259   2.392 -1.0214 -1.2239  2.8207
  103Eth     Ho 3094   0.701   1.484   9.569  0.0391 -0.3615 -1.4138
  103Eth     Oh 3095   0.611   1.487   9.595  0.4593  0.1979  0.0055
  103Eth     Co 3096   0.552   1.534   9.480  0.4603  0.0258 -0.1652
  103Eth    Hco 3097   0.572   1.476   9.390  0.9260  0.6547 -0.4737
  103Eth    Hco 3098   0.591   1.634   9.459 -0.2077  0.2956 -0.1031
  103Eth     Ch 3099   0.403   1.542   9.495 -0.1283 -0.5763 -0.2264
  103Eth    Hcc 3100   0.350   1.564   9.402 -0.6981 -2.4173 -0.3623
  103Eth    Hcc 3101   0.379   1.616   9.570  3.4782 -0.6092  1.0321
  103Eth    Hcc 3102   0.379   1.437   9.512 -1.6337  0.0560  1.6835
  104Eth     Ho 3103   2.177   2.773   9.755  0.2715 -0.0389 -0.8349
  104Eth     Oh 3104   2.111   2.706   9.745  0.1381  0.1130 -0.9810
  104Eth     Co 3105   2.000   2.776   9.703 -0.0936  0.1248  0.1024
  104Eth    Hco 3106   2.019   2.829   9.610  0.7252  1.2511  0.8947
  104Eth    Hco 3107   1.987   2.854   9.778  0.1863 -0.4012  0.7089
  104Eth     Ch 3108   1.880   2.682   9.707 -0.1581  0.4184  0.5427
  104Eth    Hcc 3109   1.785   2.736   9.711  0.0527  0.7018  1.9686
  104Eth    Hcc 3110   1.873   2.627   9.801 -0.0851  1.8569  1.4128
  104Eth    Hcc 3111   1.875   2.595   9.642  2.0704 -0.8724  2.0457
  105Eth     Ho 3112   0.331   0.296   8.573  1.0476  0.2674 -1.9859
  105Eth     Oh 3113   0.262   0.257   8.522 -0.4340  0.0732  0.0803
  105Eth     Co 3114   0.168   0.226   8.624 -0.4275 -0.4256  0.7288
  105Eth    Hco 3115   0.110   0.311   8.659  0.1098  0.1946  0.1064
  105Eth    Hco 3116   0.212   0.192   8.718 -1.4122  0.6820  1.6016
  105Eth     Ch 3117   0.072   0.112   8.592 -0.1571 -0.0624  0.3507
  105Eth    Hcc 3118   0.105   0.011   8.572  0.2453 -0.3066  2.1629
  105Eth    Hcc 3119   0.006   0.147   8.513  1.9650  0.5668 -1.1889
  105Eth    Hcc 3120   0.010   0.104   8.682 -0.0007 -3.2838  0.2096
  106Eth     Ho 3121   2.044   0.223   3.678  1.2037 -1.0959 -1.6033
  106Eth     Oh 3122   2.133   0.236   3.704  0.7323 -0.2381 -0.3415
  106Eth     Co 3123   2.162   0.371   3.670  0.7953 -0.7193 -0.9344
  106Eth    Hco 3124   2.112   0.433   3.745  2.2274 -0.0555 -0.5283
  106Eth    Hco 3125   2.115   0.388   3.574  2.0678  2.0582 -1.0910
  106Eth     Ch 3126   2.316   0.400   3.657 -0.0019 -0.1029 -0.2632
  106Eth    Hcc 3127   2.362   0.309   3.617  0.6108  1.1273 -2.4329
  106Eth    Hcc 3128   2.361   0.435   3.750 -2.3353  1.8132  0.1840
  106Eth    Hcc 3129   2.332   0.489   3.596  0.0401 -1.0852 -1.7040
  107Eth     Ho 3130   0.427   2.533   7.527  0.2731  0.0543  0.2233
  107Eth     Oh 3131   0.397   2.459   7.477  0.5954  0.2621 -0.2697
  107Eth     Co 3132   0.275   2.421   7.522  0.4719 -0.0535 -0.4529
  107Eth    Hco 3133   0.194   2.488   7.492 -0.8221 -0.2938  2.3739
  107Eth    Hco 3134   0.273   2.411   7.630  0.4839  1.4605 -0.3038
  107Eth     Ch 3135   0.247   2.278   7.466  0.4400 -0.5789  0.1467
  107Eth    Hcc 3136   0.329   2.207   7.458 -2.0439 -3.2889 -2.1557
  107Eth    Hcc 3137   0.203   2.284   7.367 -0.2529 -0.4798  0.4570
  107Eth    Hcc 3138   0.164   2.249   7.531 -0.4104 -1.6031 -1.3705
  108Eth     Ho 3139   0.783   0.379   4.286  0.5602 -0.1639  0.3297
  108Eth     Oh 3140   0.721   0.309   4.296 -0.5084  0.7259  0.0889
  108Eth     Co 3141   0.766   0.202   4.206  0.1353  0.2003  0.6950
  108Eth    Hco 3142   0.861   0.156   4.235  0.0166 -0.8737 -0.5621
  108Eth    Hco 3143   0.772   0.245   4.106 -0.5229 -1.7241 -0.1958
  108Eth     Ch 3144   0.667   0.087   4.200 -0.3051  0.4998  0.0258
  108Eth    Hcc 3145   0.630   0.047   4.294 -1.2011 -0.2561 -0.6457
  108Eth    Hcc 3146   0.709   0.014   4.131 -2.5410  2.6248 -3.7562
  108Eth    Hcc 3147   0.578   0.130   4.155  0.2876  1.1251 -0.5824
  109Eth     Ho 3148   3.273   0.236   4.773  1.7418 -1.4360  1.3107
  109Eth     Oh 3149   3.219   0.172   4.816  0.0790 -0.8396  0.1682
  109Eth     Co 3150   3.268   0.172   4.952 -0.4513  0.0534 -1.0793
  109Eth    Hco 3151   3.250   0.271   4.994 -0.8413 -1.2052  1.8239
  109Eth    Hco 3152   3.375   0.153   4.949  0.2738  2.9307  2.4068
  109Eth     Ch 3153   3.180   0.076   5.038 -0.5730  0.0273  0.1590
  109Eth    Hcc 3154   3.201   0.088   5.144 -2.1554  0.2321  0.4507
  109Eth    Hcc 3155   3.208  -0.028   5.019  1.4680  0.6323 -0.2877
  109Eth    Hcc 3156   3.075   0.082   5.013  0.3514 -0.8049 -4.3894
  110Eth     Ho 3157   1.302   3.314   2.079 -2.7099 -1.1505 -2.9399
  110Eth     Oh 3158   1.238   3.289   2.143 -0.4507  0.0805 -0.0848
  110Eth     Co 3159   1.113   3.340   2.104  0.2511  0.2229 -0.0229
  110Eth    Hco 3160   1.097   3.329   1.997 -0.1133 -1.5228  0.1933
  110Eth    Hco 3161   1.102   3.448   2.111 -0.2046  0.1660  0.1384
  110Eth     Ch 3162   1.001   3.283   2.194 -0.0349 -0.2494  0.6700
  110Eth    Hcc 3163   0.993   3.324   2.294 -2.9804  1.9536 -0.3716
  110Eth    Hcc 3164   0.994   3.175   2.205 -0.9907 -0.4479 -1.5205
  110Eth    Hcc 3165   0.906   3.308   2.146 -0.0064 -1.4579 -0.0432
  111Eth     Ho 3166   2.879   2.033   2.972  2.4638 -1.6838 -0.2953
  111Eth     Oh 3167   2.874   2.022   3.065 -0.3790  0.4049 -0.1694
  111Eth     Co 3168   2.798   2.123   3.107 -0.6016 -0.0448 -0.6434
  111Eth    Hco 3169   2.696   2.112   3.070 -0.6628 -0.2666 -0.4064
  111Eth    Hco 3170   2.838   2.219   3.072  2.2902 -1.2483 -0.7865
  111Eth     Ch 3171   2.778   2.113   3.259  0.5279  0.0763  0.1746
  111Eth    Hcc 3172   2.700   2.180   3.294 -1.1239 -1.4560 -0.4739
  111Eth    Hcc 3173   2.869   2.124   3.318  1.0603 -0.1411 -0.5969
  111Eth    Hcc 3174   2.734   2.015   3.279  1.9837 -1.0774 -1.9243
  112Eth     Ho 3175   2.295   1.913   9.921  2.3205 -1.2483  2.0149
  112Eth     Oh 3176   2.301   1.845   9.855  0.5322  0.3647  0.1288
  112Eth     Co 3177   2.174   1.816   9.803  0.3011  0.0269  0.3704
  112Eth    Hco 3178   2.187   1.780   9.701 -1.0582  0.3844  0.0511
  112Eth    Hco 3179   2.102   1.899   9.806 -1.2593 -1.3333  1.4032
  112Eth     Ch 3180   2.111   1.707   9.887  0.6917 -0.6616 -0.2558
  112Eth    Hcc 3181   2.102   1.748   9.987  0.4635 -2.6481  0.5652
  112Eth    Hcc 3182   2.174   1.618   9.879  1.8457 -0.1979  2.9018
  112Eth    Hcc 3183   2.013   1.702   9.839  1.0060  0.5157 -1.0560
  113Eth     Ho 3184   2.157   3.040   5.134 -3.0727  1.2486 -0.3784
  113Eth     Oh 3185   2.142   2.974   5.068 -0.7031  0.4645 -0.1728
  113Eth     Co 3186   2.016   2.978   5.011  0.0562 -0.6143  0.2885
  113Eth    Hco 3187   1.992   3.072   4.963  1.5274 -1.0005 -1.2306
  113Eth    Hco 3188   1.947   2.975   5.095  0.4534  3.3193  0.8495
  113Eth     Ch 3189   1.998   2.863   4.909 -0.6466  0.2308 -0.2355
  113Eth    Hcc 3190   2.049   2.890   4.816  0.6450 -1.5659 -0.0786
  113Eth    Hcc 3191   1.893   2.860   4.881 -0.2071  0.5941 -2.0208
  113Eth    Hcc 3192   2.039   2.767   4.940  0.8265  1.0385  0.3702
  114Eth     Ho 3193   0.147   1.420   3.269 -0.8534  0.4375 -0.7118
  114Eth     Oh 3194   0.075   1.366   3.298  0.0026 -0.0969  0.4700
  114Eth     Co 3195   0.091   1.243   3.233  0.1563 -0.3474 -0.2347
  114Eth    Hco 3196   0.198   1.228   3.218  0.3534  0.0603  0.7477
  114Eth    Hco 3197   0.039   1.241   3.137 -0.6490 -0.4404  0.1967
  114Eth     Ch 3198   0.015   1.142   3.326  0.2205  0.7345 -0.1301
  114Eth    Hcc 3199   0.026   1.041   3.287  1.4110  0.8002  0.0186
  114Eth    Hcc 3200  -0.089   1.171   3.339 -0.0377 -0.1721 -0.1335
  114Eth    Hcc 3201   0.057   1.139   3.426 -1.2057 -1.1667  0.4508
  115Eth     Ho 3202   0.601   0.846   4.106  1.8676 -1.3857 -2.0189
  115Eth     Oh 3203   0.558   0.767   4.132  0.1715  0.1237 -0.0890
  115Eth     Co 3204   0.440   0.773   4.059 -0.6846  0.5824 -0.1167
  115Eth    Hco 3205   0.465   0.777   3.953  2.7191  3.5192  0.6853
  115Eth    Hco 3206   0.384   0.863   4.085 -1.2636  0.2065 -0.0553
  115Eth     Ch 3207   0.346   0.667   4.087 -0.5001 -1.1549  0.0613
  115Eth    Hcc 3208   0.377   0.566   4.060  0.5251 -0.2887 -2.0150
  115Eth    Hcc 3209   0.246   0.698   4.056  0.4392 -0.5356 -2.4092
  115Eth    Hcc 3210   0.344   0.663   4.196  0.5564 -2.8287  0.0541
  116Eth     Ho 3211   3.193   0.488   8.983  0.8381 -0.7813  0.3741
  116Eth     Oh 3212   3.260   0.553   8.974 -0.0192 -0.0295 -0.6314
  116Eth     Co 3213   3.257   0.615   8.844  0.2812  1.0389 -0.6200
  116Eth    Hco 3214   3.153   0.618   8.810 -1.1087  3.5896  3.5129
  116Eth    Hco 3215   3.309   0.538   8.787 -0.4392 -1.3956  1.8795
  116Eth     Ch 3216   3.337   0.743   8.836 -0.4880  0.1496  0.3315
  116Eth    Hcc 3217   3.359   0.787   8.739 -1.6503 -0.5128 -0.2453
  116Eth    Hcc 3218   3.439   0.722   8.869 -0.9571  2.3145  3.3599
  116Eth    Hcc 3219   3.302   0.829   8.893  2.8073 -0.2381  3.1356
  117Eth     Ho 3220   1.492   2.456   3.851  0.5872 -0.4171 -0.8031
  117Eth     Oh 3221   1.411   2.468   3.805  0.1987 -0.4006 -0.1224
  117Eth     Co 3222   1.430   2.579   3.714 -0.5421  0.5187 -1.0692
  117Eth    Hco 3223   1.526   2.583   3.662 -0.4579 -1.5612 -1.1251
  117Eth    Hco 3224   1.427   2.674   3.767 -1.2342  0.5293 -1.1174
  117Eth     Ch 3225   1.332   2.591   3.605  0.7296  0.2002  0.3957
  117Eth    Hcc 3226   1.236   2.543   3.625 -0.3643  1.4860 -1.5407
  117Eth    Hcc 3227   1.359   2.540   3.512  2.6104  3.7783 -1.1352
  117Eth    Hcc 3228   1.311   2.695   3.581  2.5209  0.6027  0.5300
  118Eth     Ho 3229   1.456   1.012   9.755 -1.8371  2.0697 -0.5129
  118Eth     Oh 3230   1.525   1.060   9.714  0.0843 -0.1776 -0.0100
  118Eth     Co 3231   1.647   1.004   9.774  0.0483 -0.4602 -1.0961
  118Eth    Hco 3232   1.650   0.897   9.758  0.5687 -0.2704 -2.3333
  118Eth    Hco 3233   1.653   1.028   9.881 -0.5992 -1.5735 -0.8027
  118Eth     Ch 3234   1.770   1.073   9.708  0.1261  0.6976  0.1609
  118Eth    Hcc 3235   1.806   1.025   9.617  2.2200  0.0082  1.3122
  118Eth    Hcc 3236   1.853   1.089   9.778 -0.2902  1.8700  0.4020
  118Eth    Hcc 3237   1.743   1.174   9.676  2.5120  0.8114 -1.5769
  119Eth     Ho 3238   2.700   2.389   9.526  0.0825 -0.5763  0.3299
  119Eth     Oh 3239   2.613   2.401   9.561 -0.4083 -0.3390 -0.9482
  119Eth     Co 3240   2.642   2.462   9.682  0.1428 -0.1311 -0.9924
  119Eth    Hco 3241   2.670   2.566   9.668 -2.0395  0.5025 -0.8467
  119Eth    Hco 3242   2.721   2.409   9.735 -1.3800 -0.0831  1.3913
  119Eth     Ch 3243   2.514   2.460   9.772  0.9359  0.2278 -0.1922
  119Eth    Hcc 3244   2.525   2.510   9.869 -3.5262 -0.4543  0.7839
  119Eth    Hcc 3245   2.473   2.364   9.802  0.9111 -0.3240 -1.9174
  119Eth    Hcc 3246   2.438   2.525   9.728 -0.4386 -0.7453  0.7013
  120Eth     Ho 3247   2.171   1.173   1.599 -0.1234  0.3142 -0.4111
  120Eth     Oh 3248   2.221   1.239   1.644 -0.0268  0.1462 -0.2696
  120Eth     Co 3249   2.152   1.363   1.638 -0.3690 -0.6749  0.1530
  120Eth    Hco 3250   2.047   1.340   1.621 -0.3839 -1.4436  1.2606
  120Eth    Hco 3251   2.173   1.404   1.539 -0.5351 -0.4069  0.2268
  120Eth     Ch 3252   2.188   1.459   1.754 -0.5069 -0.5689 -0.3676
  120Eth    Hcc 3253   2.296   1.477   1.760  0.0924 -2.7482 -3.4779
  120Eth    Hcc 3254   2.140   1.426   1.846 -0.9986 -0.6532 -0.6553
  120Eth    Hcc 3255   2.128   1.547   1.732  0.1477 -0.6935 -2.8142
  121Eth     Ho 3256   0.898   0.549   4.949  1.2479  2.6001 -0.3394
  121Eth     Oh 3257   0.865   0.535   4.862 -0.2378 -0.0431  0.5854
  121Eth     Co 3258   0.771   0.640   4.830 -0.4098  0.1723 -0.8485
  121Eth    Hco 3259   0.807   0.725   4.887 -0.7623 -0.2441 -0.0051
  121Eth    Hco 3260   0.666   0.620   4.851  0.1869 -1.5455  0.6656
  121Eth     Ch 3261   0.782   0.687   4.686 -0.4307  0.2413  0.2606
  121Eth    Hcc 3262   0.709   0.766   4.669 -3.4871 -2.1169  1.9104
  121Eth    Hcc 3263   0.776   0.617   4.603  3.2206 -2.0615  1.8044
  121Eth    Hcc 3264   0.881   0.728   4.667  1.4186 -3.0644  2.2436
  122Eth     Ho 3265   0.449   3.148   9.170  0.4822 -0.1577 -1.1305
  122Eth     Oh 3266   0.537   3.173   9.192  0.1669  0.1045 -0.1099
  122Eth     Co 3267   0.535   3.297   9.253 -0.3974  0.2461  0.1537
  122Eth    Hco 3268   0.431   3.307   9.284  0.3476 -1.6072  3.6183
  122Eth    Hco 3269   0.543   3.373   9.176  0.8805  0.8246  0.8432
  122Eth     Ch 3270   0.633   3.309   9.367  0.1262  0.8173 -0.3843
  122Eth    Hcc 3271   0.627   3.410   9.407 -0.8455  0.0683  1.4030
  122Eth    Hcc 3272   0.731   3.281   9.330  0.2726  0.1246  0.5024
  122Eth    Hcc 3273   0.611   3.227   9.435  3.0234  1.2053  1.0977
  123Eth     Ho 3274   1.210   2.859   7.505  1.9088  1.3764  1.4113
  123Eth     Oh 3275   1.177   2.808   7.576 -0.2053  0.6837 -0.0018
  123Eth     Co 3276   1.200   2.670   7.555 -0.2185 -0.5161 -0.1882
  123Eth    Hco 3277   1.220   2.627   7.653 -1.5924  0.0751  0.3606
  123Eth    Hco 3278   1.288   2.654   7.493 -0.7589 -0.1400 -1.0541
  123Eth     Ch 3279   1.071   2.603   7.491 -0.1474 -0.6233  0.1919
  123Eth    Hcc 3280   1.100   2.499   7.500  0.4684 -0.4647  0.1080
  123Eth    Hcc 3281   1.055   2.652   7.395  1.9273  1.5233  0.8785
  123Eth    Hcc 3282   0.986   2.614   7.559  0.0086 -0.6558  0.3935
  124Eth     Ho 3283   0.375   3.357   2.367  1.7672 -1.2022  0.4215
  124Eth     Oh 3284   0.391   3.323   2.281  0.2977  0.1070 -0.3993
  124Eth     Co 3285   0.295   3.385   2.198  0.5750  0.5300  0.0662
  124Eth    Hco 3286   0.334   3.476   2.151  3.4271 -0.4965  0.3745
  124Eth    Hco 3287   0.212   3.427   2.255 -0.1333  2.4544 -2.2799
  124Eth     Ch 3288   0.244   3.296   2.082  0.6078 -0.1979 -0.1016
  124Eth    Hcc 3289   0.173   3.349   2.018  0.6789  0.2029  0.1488
  124Eth    Hcc 3290   0.184   3.216   2.124 -1.5187  1.8990  1.0204
  124Eth    Hcc 3291   0.327   3.257   2.024  1.0839  0.7067 -0.0467
  125Eth     Ho 3292   1.227   1.166   6.496  0.5822 -0.1474  0.5838
  125Eth     Oh 3293   1.251   1.096   6.437 -0.8912  0.2192 -0.4778
  125Eth     Co 3294   1.165   0.986   6.464 -0.4684  0.6260 -0.2647
  125Eth    Hco 3295   1.095   0.967   6.382  1.7151 -2.3756 -1.5233
  125Eth    Hco 3296   1.113   1.000   6.559  0.8692 -0.9016  0.7142
  125Eth     Ch 3297   1.249   0.862   6.469 -0.4132  0.3413 -0.2046
  125Eth    Hcc 3298   1.282   0.849   6.366  0.4632 -1.2408  0.2611
  125Eth    Hcc 3299   1.197   0.772   6.502  1.3950 -0.1941  1.2871
  125Eth    Hcc 3300   1.335   0.883   6.533 -0.6224  2.3588 -0.5643
  126Eth     Ho 3301   3.246   2.391   6.017 -1.7117 -0.5204  0.6212
  126Eth     Oh 3302   3.232   2.474   6.057 -0.3248 -0.3282  0.7342
  126Eth     Co 3303   3.345   2.495   6.142 -0.6940  0.3669  0.3161
  126Eth    Hco 3304   3.443   2.459   6.111 -1.5113 -0.5682 -1.2315
  126Eth    Hco 3305   3.320   2.458   6.242  1.0221  0.4795  0.8060
  126Eth     Ch 3306   3.355   2.646   6.166  0.6881 -0.0694 -0.6239
  126Eth    Hcc 3307   3.399   2.699   6.081 -0.4539  1.9108 -0.0211
  126Eth    Hcc 3308   3.435   2.658   6.239  1.0107  0.5790 -1.0747
  126Eth    Hcc 3309   3.264   2.686   6.211  1.0763  0.1435 -0.0300
  127Eth     Ho 3310   1.665   2.985   3.208  2.2817 -0.6298 -0.6682
  127Eth     Oh 3311   1.633   2.897   3.197  0.3326 -0.0427  0.1206
  127Eth     Co 3312   1.636   2.826   3.317  0.2870  0.1563  0.4116
  127Eth    Hco 3313   1.677   2.879   3.403 -0.8456  0.1229  0.9946
  127Eth    Hco 3314   1.702   2.739   3.314  0.0611 -0.2436  4.1149
  127Eth     Ch 3315   1.496   2.779   3.344  0.6333 -0.1181 -1.0285
  127Eth    Hcc 3316   1.481   2.681   3.298  1.5250 -0.1764 -1.1987
  127Eth    Hcc 3317   1.430   2.852   3.298  0.4715 -0.3040 -1.0942
  127Eth    Hcc 3318   1.480   2.777   3.452  1.0105  1.7694 -0.9174
  128Eth     Ho 3319   3.248   1.475   5.437 -0.2759  0.6266 -0.2722
  128Eth     Oh 3320   3.212   1.484   5.350  0.3218  0.2345 -0.5592
  128Eth     Co 3321   3.294   1.404   5.267 -0.1064 -1.0313  0.0907
  128Eth    Hco 3322   3.296   1.301   5.303 -0.8943 -0.8591  0.6346
  128Eth    Hco 3323   3.392   1.448   5.247 -1.6921  1.8223 -1.7207
  128Eth     Ch 3324   3.218   1.408   5.136  0.0508 -0.5483 -0.2009
  128Eth    Hcc 3325   3.261   1.335   5.068 -1.7805 -1.6680 -0.2095
  128Eth    Hcc 3326   3.207   1.506   5.090 -0.1006 -0.4868 -0.0363
  128Eth    Hcc 3327   3.111   1.384   5.146 -0.3975  1.5285  0.1919
  129Eth     Ho 3328   0.642   1.830   2.859  1.3021 -0.6141  0.5119
  129Eth     Oh 3329   0.692   1.841   2.780  0.4249 -0.6897 -0.0568
  129Eth     Co 3330   0.801   1.765   2.804  0.2442  0.5808  0.0446
  129Eth    Hco 3331   0.837   1.702   2.723  1.3275  0.2630  0.7509
  129Eth    Hco 3332   0.763   1.682   2.863 -0.7082  0.3290 -0.9119
  129Eth     Ch 3333   0.924   1.818   2.876 -0.8080  0.3401  0.5416
  129Eth    Hcc 3334   0.995   1.857   2.803  0.6872 -1.3098  1.0678
  129Eth    Hcc 3335   0.979   1.745   2.936 -1.4095 -1.4854 -1.1003
  129Eth    Hcc 3336   0.895   1.893   2.950 -0.7035  2.2759 -1.3486
  130Eth     Ho 3337   1.238   1.966   9.037  2.1100 -1.1711  2.6202
  130Eth     Oh 3338   1.174   1.914   9.082 -0.6051 -0.3149 -0.0739
  130Eth     Co 3339   1.150   1.990   9.204 -0.1552 -0.3871  0.6961
  130Eth    Hco 3340   1.117   2.089   9.171  0.0636 -0.2381  0.9273
  130Eth    Hco 3341   1.248   1.998   9.250 -0.1485  0.8850  0.4991
  130Eth     Ch 3342   1.050   1.915   9.295 -0.3370  0.8142  0.4499
  130Eth    Hcc 3343   1.094   1.825   9.339 -1.4863  0.0458  0.0506
  130Eth    Hcc 3344   0.958   1.888   9.243  0.8235  0.6548 -1.5797
  130Eth    Hcc 3345   1.029   1.983   9.378 -2.4647 -1.1289  1.5730
  131Eth     Ho 3346   1.691   1.985   6.767  0.3209  0.1826 -1.4383
  131Eth     Oh 3347   1.618   1.949   6.719 -0.5996 -0.7660  0.6376
  131Eth     Co 3348   1.659   1.952   6.584 -0.0329 -0.0408 -0.7415
  131Eth    Hco 3349   1.755   1.902   6.577  0.2166  0.5145 -1.3848
  131Eth    Hco 3350   1.682   2.054   6.555 -2.4879  0.4108 -1.2222
  131Eth     Ch 3351   1.558   1.884   6.496 -0.9076 -0.1749 -0.4228
  131Eth    Hcc 3352   1.600   1.865   6.398 -1.7201 -0.6790 -0.6792
  131Eth    Hcc 3353   1.470   1.943   6.471 -2.0298 -1.9018 -0.6355
  131Eth    Hcc 3354   1.520   1.789   6.533  1.1870 -0.1443  1.9296
  132Eth     Ho 3355   2.624   3.168   3.776  0.9781 -1.1902 -0.7072
  132Eth     Oh 3356   2.652   3.155   3.865  0.1035  0.2984 -0.1850
  132Eth     Co 3357   2.540   3.194   3.940  0.1833 -0.1185  0.0627
  132Eth    Hco 3358   2.460   3.129   3.905  0.5125 -0.7445  0.4550
  132Eth    Hco 3359   2.520   3.296   3.907  3.4011  0.0204 -1.7052
  132Eth     Ch 3360   2.582   3.186   4.094 -0.5112 -0.7597  0.2199
  132Eth    Hcc 3361   2.651   3.268   4.112 -2.3057  0.8201  0.0465
  132Eth    Hcc 3362   2.629   3.090   4.117 -2.3481 -1.0782  2.8384
  132Eth    Hcc 3363   2.494   3.203   4.156 -0.4382 -0.4368  0.2344
  133Eth     Ho 3364   0.886   3.164   6.813 -0.6840 -1.6065 -2.2458
  133Eth     Oh 3365   0.902   3.080   6.853 -0.2589 -0.5893 -0.1880
  133Eth     Co 3366   0.950   3.096   6.980  0.5635  0.0126 -0.1561
  133Eth    Hco 3367   0.962   2.998   7.026  0.5440  0.6623  1.2765
  133Eth    Hco 3368   0.865   3.141   7.032  0.5832  0.4213 -0.4734
  133Eth     Ch 3369   1.079   3.179   6.998  0.2359  0.4943 -0.1223
  133Eth    Hcc 3370   1.063   3.287   6.997  2.5734  0.8853  1.0782
  133Eth    Hcc 3371   1.142   3.155   6.912 -1.6271 -0.5911 -1.2194
  133Eth    Hcc 3372   1.125   3.149   7.092  0.2947  2.3741  0.4783
  134Eth     Ho 3373   1.658   2.015   7.096 -0.7230  1.2739  0.3420
  134Eth     Oh 3374   1.603   1.972   7.158 -0.3671 -0.1928 -0.3377
  134Eth     Co 3375   1.505   1.913   7.072  0.4343 -0.2173 -0.2547
  134Eth    Hco 3376   1.524   1.805   7.076  0.3521 -0.2165  0.1264
  134Eth    Hco 3377   1.515   1.946   6.969 -0.6320  1.6433  0.2269
  134Eth     Ch 3378   1.365   1.957   7.121  0.0929  0.5114  0.1859
  134Eth    Hcc 3379   1.347   1.911   7.218  0.8631 -1.6726 -0.6832
  134Eth    Hcc 3380   1.294   1.917   7.050  1.6945 -2.5881  0.2643
  134Eth    Hcc 3381   1.348   2.062   7.146  1.0339  0.7178 -0.0261
  135Eth     Ho 3382   0.665   0.871   7.002 -1.0568  1.7513 -0.8439
  135Eth     Oh 3383   0.752   0.906   7.006 -0.1296 -0.5236 -0.2446
  135Eth     Co 3384   0.815   0.858   7.126  0.3219  0.2985  0.1828
  135Eth    Hco 3385   0.757   0.779   7.172 -1.8544  1.3621 -0.6802
  135Eth    Hco 3386   0.811   0.936   7.202 -0.0935 -0.9676  1.4766
  135Eth     Ch 3387   0.954   0.819   7.068 -0.7528  0.7454  0.1030
  135Eth    Hcc 3388   1.002   0.908   7.027  0.6005 -0.1742 -0.3604
  135Eth    Hcc 3389   0.952   0.749   6.984 -0.0025 -0.0050  0.7007
  135Eth    Hcc 3390   1.021   0.786   7.148  0.5745  3.1167  0.0037
  136Eth     Ho 3391   2.719   1.276   9.023  1.7060  0.3676 -0.5590
  136Eth     Oh 3392   2.741   1.250   9.111  0.2187  0.0791 -0.2609
  136Eth     Co 3393   2.831   1.343   9.163 -0.3120  0.0683 -0.7049
  136Eth    Hco 3394   2.782   1.440   9.171  2.2290  1.2393  1.6421
  136Eth    Hco 3395   2.911   1.347   9.090 -0.5193 -0.7999 -0.9834
  136Eth     Ch 3396   2.875   1.287   9.298  0.5281 -0.7391  1.2038
  136Eth    Hcc 3397   2.913   1.358   9.372 -3.1843 -0.0326  2.5523
  136Eth    Hcc 3398   2.957   1.217   9.286  0.3562 -0.2126 -3.7569
  136Eth    Hcc 3399   2.787   1.251   9.353 -1.1785  2.7701  0.9539
  137Eth     Ho 3400   3.280   1.124   1.901  1.1391  0.8080 -0.3648
  137Eth     Oh 3401   3.281   1.154   1.990 -0.0540  0.1998 -0.1422
  137Eth     Co 3402   3.382   1.251   2.008  0.6884  0.0887 -0.3465
  137Eth    Hco 3403   3.356   1.356   1.990 -1.6258 -0.1060  1.7267
  137Eth    Hco 3404   3.457   1.239   1.929  2.7215  0.9612  1.4043
  137Eth     Ch 3405   3.443   1.234   2.143  0.0708  0.5708 -0.2005
  137Eth    Hcc 3406   3.515   1.315   2.153  0.6909 -0.1625  1.3752
  137Eth    Hcc 3407   3.500   1.141   2.145  0.6074  0.9237  1.5128
  137Eth    Hcc 3408   3.365   1.230   2.218  2.9605 -1.6873  2.8272
  138Eth     Ho 3409   0.474   0.133   8.920 -2.3283  0.3770 -0.6375
  138Eth     Oh 3410   0.489   0.090   8.837  0.3929 -0.1446  0.0713
  138Eth     Co 3411   0.411  -0.028   8.838 -0.0491  0.4519  0.2064
  138Eth    Hco 3412   0.317   0.013   8.877 -0.5028  0.8452 -1.2462
  138Eth    Hco 3413   0.448  -0.099   8.911 -0.7757  0.8300  0.9465
  138Eth     Ch 3414   0.411  -0.090   8.699 -0.2855 -0.6388 -0.3868
  138Eth    Hcc 3415   0.504  -0.139   8.672  1.5646  0.8297  3.0143
  138Eth    Hcc 3416   0.404  -0.005   8.631  0.7192 -0.9542 -0.8849
  138Eth    Hcc 3417   0.330  -0.160   8.677 -0.4422 -0.5626 -0.0606
  139Eth     Ho 3418   2.080   1.986   2.235  0.4885 -0.4269  0.5238
  139Eth     Oh 3419   2.114   2.010   2.150  0.2903 -0.1000  0.5373
  139Eth     Co 3420   2.250   1.974   2.156  0.3831 -0.4360 -0.0691
  139Eth    Hco 3421   2.253   1.904   2.240  1.4710  0.9217  1.0466
  139Eth    Hco 3422   2.309   2.065   2.167 -0.9008  0.5405 -1.0346
  139Eth     Ch 3423   2.285   1.917   2.012  0.9467 -0.4907  0.0100
  139Eth    Hcc 3424   2.390   1.938   1.993  1.1498 -0.2910  1.3049
  139Eth    Hcc 3425   2.224   1.958   1.932  0.9233  2.6145  1.5523
  139Eth    Hcc 3426   2.268   1.810   1.999 -1.0901 -0.0597 -1.0687
  140Eth     Ho 3427   2.052   1.326   9.185  0.6008 -1.1274  0.1167
  140Eth     Oh 3428   2.095   1.410   9.181  0.3567 -1.0107 -0.0518
  140Eth     Co 3429   2.004   1.523   9.186 -0.0322 -0.5324 -0.1219
  140Eth    Hco 3430   1.933   1.505   9.267 -0.1560 -2.2816 -0.5925
  140Eth    Hco 3431   1.952   1.529   9.090  0.5612 -1.2714 -0.5019
  140Eth     Ch 3432   2.073   1.658   9.192  0.3959  0.4871  0.3549
  140Eth    Hcc 3433   2.139   1.678   9.277 -1.3105 -0.7674  2.0427
  140Eth    Hcc 3434   1.995   1.734   9.200 -0.6195 -0.6203  1.4025
  140Eth    Hcc 3435   2.128   1.673   9.100 -0.4955  3.1068  0.2271
  141Eth     Ho 3436   1.355   2.350   8.852 -0.6405  1.1914 -1.0981
  141Eth     Oh 3437   1.439   2.375   8.884 -0.6079 -0.4767  0.1899
  141Eth     Co 3438   1.398   2.505   8.916 -0.5185  0.1454 -0.3628
  141Eth    Hco 3439   1.356   2.507   9.016 -0.6082 -0.0470 -0.3938
  141Eth    Hco 3440   1.309   2.540   8.863 -1.2208  0.0305  0.7300
  141Eth     Ch 3441   1.522   2.588   8.903  0.4567  0.4662 -0.1313
  141Eth    Hcc 3442   1.619   2.541   8.893  0.1754  0.1212 -1.4457
  141Eth    Hcc 3443   1.510   2.675   8.968 -3.0559 -1.0591  1.3984
  141Eth    Hcc 3444   1.504   2.637   8.807 -1.3903 -0.0281 -0.0604
  142Eth     Ho 3445   0.089   1.519   3.884 -1.0653 -2.2854  2.2689
  142Eth     Oh 3446   0.068   1.473   3.805  0.3429  0.4632  0.1811
  142Eth     Co 3447   0.156   1.360   3.809 -0.4855 -0.4560  0.2473
  142Eth    Hco 3448   0.148   1.308   3.904  1.3377  1.3833  1.4678
  142Eth    Hco 3449   0.260   1.391   3.802  0.3417 -3.5509 -1.8280
  142Eth     Ch 3450   0.108   1.269   3.695  0.2623 -0.7404 -0.1761
  142Eth    Hcc 3451   0.176   1.184   3.692  0.1279 -0.9020  1.2740
  142Eth    Hcc 3452   0.104   1.331   3.605 -0.5943  0.3877  0.6421
  142Eth    Hcc 3453   0.004   1.241   3.709  0.4050 -1.0804  0.2145
  143Eth     Ho 3454   0.519   0.199   5.031  1.1998 -2.1875 -1.7061
  143Eth     Oh 3455   0.477   0.151   5.100  0.3862  0.2120 -0.4699
  143Eth     Co 3456   0.347   0.212   5.115  0.0322 -0.2999  0.3315
  143Eth    Hco 3457   0.293   0.216   5.021  0.3772  1.6277  0.2056
  143Eth    Hco 3458   0.372   0.314   5.141 -2.3886  0.3610  0.1649
  143Eth     Ch 3459   0.268   0.146   5.224 -0.0636  0.0790  0.0193
  143Eth    Hcc 3460   0.169   0.189   5.235 -1.5135 -2.3712 -2.6152
  143Eth    Hcc 3461   0.325   0.154   5.317 -0.9175  0.7324  0.4856
  143Eth    Hcc 3462   0.254   0.043   5.190  3.1714  0.0902 -1.5146
  144Eth     Ho 3463   2.462   0.059   1.453  1.1571 -0.8220 -0.6269
  144Eth     Oh 3464   2.516   0.129   1.485  0.0758 -0.1976 -0.1265
  144Eth     Co 3465   2.559   0.099   1.619 -0.2266  0.3272  0.1834
  144Eth    Hco 3466   2.606   0.002   1.634 -0.6158  0.1630  0.3482
  144Eth    Hco 3467   2.465   0.075   1.669 -1.0412  0.4024 -1.2897
  144Eth     Ch 3468   2.640   0.210   1.687  0.0391  0.5092 -0.3543
  144Eth    Hcc 3469   2.730   0.240   1.633 -0.4770  0.3122 -1.3207
  144Eth    Hcc 3470   2.676   0.173   1.784 -1.3597  1.2618  0.4649
  144Eth    Hcc 3471   2.580   0.300   1.697  1.2491  1.2607  0.3767
  145Eth     Ho 3472   1.660   0.973   3.461  0.7958  4.0677 -0.6159
  145Eth     Oh 3473   1.635   0.982   3.552  0.3168 -0.2282 -0.2401
  145Eth     Co 3474   1.617   0.859   3.613 -0.4721  0.3601  0.1136
  145Eth    Hco 3475   1.702   0.796   3.588 -1.1616 -1.0366  1.2124
  145Eth    Hco 3476   1.537   0.803   3.566 -0.8577 -0.0901  1.2810
  145Eth     Ch 3477   1.590   0.869   3.762 -1.0154 -0.4437  0.3849
  145Eth    Hcc 3478   1.544   0.776   3.794 -0.2021 -0.7218  0.7500
  145Eth    Hcc 3479   1.515   0.946   3.785  1.4327  1.9085  0.7496
  145Eth    Hcc 3480   1.682   0.899   3.813 -0.6970 -1.5769  0.4793
  146Eth     Ho 3481   0.835   1.679   6.075 -0.2938 -0.7243 -0.3909
  146Eth     Oh 3482   0.905   1.655   6.017 -0.4377 -0.8302 -0.5182
  146Eth     Co 3483   0.930   1.526   6.041 -0.0443 -0.0964 -0.3596
  146Eth    Hco 3484   0.843   1.467   6.012 -0.9105 -0.9424  3.6092
  146Eth    Hco 3485   0.945   1.516   6.149 -2.1318 -1.6081 -0.1860
  146Eth     Ch 3486   1.053   1.481   5.966 -0.3274  0.0836  0.5312
  146Eth    Hcc 3487   1.140   1.540   5.994 -0.1773  0.6742 -1.1272
  146Eth    Hcc 3488   1.043   1.501   5.860 -1.2585  0.3988  0.6751
  146Eth    Hcc 3489   1.078   1.379   5.996  2.2798  0.5559  0.1393
  147Eth     Ho 3490   1.398   1.574   2.417 -1.3921  1.5773 -1.6984
  147Eth     Oh 3491   1.322   1.520   2.410 -0.2115 -0.2876 -0.4786
  147Eth     Co 3492   1.262   1.528   2.276  0.0043 -0.4574  0.1210
  147Eth    Hco 3493   1.173   1.465   2.275 -0.5526  0.3276 -1.4449
  147Eth    Hco 3494   1.339   1.504   2.202 -2.1268  0.5037 -2.4756
  147Eth     Ch 3495   1.220   1.671   2.239  0.7706  0.0421 -1.1202
  147Eth    Hcc 3496   1.317   1.705   2.203  2.1548 -1.6285  0.8688
  147Eth    Hcc 3497   1.193   1.729   2.328  1.7051 -1.3623  0.1146
  147Eth    Hcc 3498   1.145   1.666   2.161  0.2820 -1.2268 -0.5841
  148Eth     Ho 3499   1.299   2.920   8.515  2.4463  0.8285 -1.4935
  148Eth     Oh 3500   1.291   2.837   8.472 -0.4297  0.1373  0.2905
  148Eth     Co 3501   1.348   2.759   8.573 -0.1808  0.2829 -0.4042
  148Eth    Hco 3502   1.279   2.743   8.655 -0.2180 -1.0727 -0.6898
  148Eth    Hco 3503   1.435   2.815   8.607 -1.4702  1.4806  0.9680
  148Eth     Ch 3504   1.411   2.633   8.515  0.1162 -0.0043  0.3276
  148Eth    Hcc 3505   1.340   2.574   8.458 -0.9303  1.9191 -0.4153
  148Eth    Hcc 3506   1.472   2.572   8.581 -1.1809  0.7054  2.2128
  148Eth    Hcc 3507   1.483   2.653   8.435  0.7095 -0.8981  0.6355
  149Eth     Ho 3508   1.101   0.190   3.378  0.8223 -3.3165  0.6087
  149Eth     Oh 3509   1.037   0.199   3.447  0.1897 -0.3114 -0.2914
  149Eth     Co 3510   1.021   0.337   3.471 -0.2992 -0.2203 -0.2452
  149Eth    Hco 3511   1.045   0.377   3.373  3.0358 -2.4703 -0.4370
  149Eth    Hco 3512   1.107   0.377   3.525  0.8918 -2.4077 -0.4531
  149Eth     Ch 3513   0.890   0.386   3.544 -0.5154  0.1449  0.2971
  149Eth    Hcc 3514   0.895   0.338   3.642  1.9035  0.4400  0.3420
  149Eth    Hcc 3515   0.795   0.351   3.502  0.6220 -1.4684 -1.0023
  149Eth    Hcc 3516   0.899   0.493   3.560 -0.5583  0.5454 -2.2060
  150Eth     Ho 3517   2.060   3.394   7.956 -2.2276 -0.7383  0.8083
  150Eth     Oh 3518   2.085   3.322   7.900 -0.6051 -0.2415  0.8634
  150Eth     Co 3519   2.035   3.362   7.773  0.5705  0.2553 -0.2980
  150Eth    Hco 3520   2.122   3.381   7.710  0.8944 -0.5718 -0.1118
  150Eth    Hco 3521   1.977   3.454   7.779  0.6561  0.3351 -0.6644
  150Eth     Ch 3522   1.943   3.244   7.720 -0.4768  0.4724 -0.2184
  150Eth    Hcc 3523   1.883   3.205   7.803 -0.7214 -0.6914 -0.9315
  150Eth    Hcc 3524   1.996   3.158   7.678  1.0944  1.2407  0.1599
  150Eth    Hcc 3525   1.877   3.274   7.639 -2.8295 -1.8420  0.7657
  151Eth     Ho 3526   1.188   2.692   9.690  0.4160  1.3962  0.7791
  151Eth     Oh 3527   1.112   2.729   9.649 -0.0110 -0.0776  0.2166
  151Eth     Co 3528   1.036   2.793   9.754  0.8394  0.3106  0.5191
  151Eth    Hco 3529   1.081   2.886   9.789  0.5032 -0.1615  2.2245
  151Eth    Hco 3530   1.034   2.729   9.842 -0.6678 -2.1589 -1.2440
  151Eth     Ch 3531   0.892   2.821   9.709 -0.8006 -0.3132 -0.8106
  151Eth    Hcc 3532   0.878   2.892   9.628  0.4035 -0.8229 -1.4755
  151Eth    Hcc 3533   0.835   2.857   9.795  2.2193  0.3614  0.9788
  151Eth    Hcc 3534   0.848   2.735   9.658  0.3981 -0.9325 -0.8038
  152Sol     OW 3535   2.410   2.698   2.186 -0.6803 -0.1840 -0.2788
  152Sol     HW 3536   2.361   2.694   2.104  0.7208 -0.1597 -1.1269
  152Sol     HW 3537   2.348   2.667   2.252 -1.2330 -2.0102 -1.6154
  152Sol     MW 3538   2.400   2.695   2.185 -0.5559 -0.1699  0.4383
  153Sol     OW 3539   0.375   1.878   5.756  0.1618 -0.2501  0.1572
  153Sol     HW 3540   0.470   1.873   5.768  0.3615  0.7151 -0.9352
  153Sol     HW 3541   0.356   1.972   5.754 -0.7250 -0.4337 -0.3669
  153Sol     MW 3542   0.382   1.886   5.757  0.1285 -0.1647 -0.6957
  154Sol     OW 3543   2.853   1.101   3.899 -0.2778 -0.4465  0.0963
  154Sol     HW 3544   2.930   1.156   3.882 -0.5767  0.9534  3.0409
  154Sol     HW 3545   2.786   1.135   3.839  0.6562 -0.0891 -0.7696
  154Sol     MW 3546   2.854   1.109   3.892  0.2218  0.1723 -0.6604
  155Sol     OW 3547   1.865   3.128   9.739  0.2016 -0.0863  0.0875
  155Sol     HW 3548   1.908   3.153   9.657 -0.2059 -0.3434 -0.2122
  155Sol     HW 3549   1.824   3.208   9.771  0.6730  0.0964  0.2290
  155Sol     MW 3550   1.865   3.137   9.734 -0.2828  0.0042 -0.0533
  156Sol     OW 3551   2.627   0.526   9.569  0.2522 -0.1010  0.0205
  156Sol     HW 3552   2.613   0.617   9.545  1.3448 -0.0649 -0.5084
  156Sol     HW 3553   2.616   0.524   9.664  0.2104  0.5745  0.0326
  156Sol     MW 3554   2.624   0.534   9.575  0.1040 -0.1401  0.1197
  157Sol     OW 3555   2.945   3.409   1.785 -0.3991  0.5768 -0.0674
  157Sol     HW 3556   2.865   3.363   1.813 -0.8631  0.7635 -1.0630
  157Sol     HW 3557   2.983   3.352   1.718 -0.3435  1.0824 -0.4670
  157Sol     MW 3558   2.941   3.400   1.781  0.2646  0.3475  0.2674
  158Sol     OW 3559   1.940   0.555   7.803  0.3164  0.2070  0.2890
  158Sol     HW 3560   1.857   0.603   7.796 -0.0610 -0.4905 -0.1139
  158Sol     HW 3561   1.924   0.474   7.755  1.1645 -0.0301  0.4082
  158Sol     MW 3562   1.931   0.552   7.798 -0.1657 -0.4195  0.0972
  159Sol     OW 3563   0.800   2.179   7.620  0.5728 -0.2216  0.0114
  159Sol     HW 3564   0.831   2.194   7.531 -2.3559 -1.1603 -1.2326
  159Sol     HW 3565   0.719   2.229   7.626  0.1238 -1.1172  1.7479
  159Sol     MW 3566   0.795   2.184   7.613 -0.3203  1.2514  0.3693
  160Sol     OW 3567   0.250   0.596   6.871  0.1462  0.0738  0.1741
  160Sol     HW 3568   0.275   0.686   6.850  1.4645 -0.5709 -1.1498
  160Sol     HW 3569   0.321   0.564   6.927  0.4703 -0.6014 -0.5982
  160Sol     MW 3570   0.259   0.601   6.874  0.2047  0.4128 -0.0035
  161Sol     OW 3571   0.201   1.431   6.277  0.4564  0.0566  0.2845
  161Sol     HW 3572   0.273   1.473   6.325  2.1273 -0.9474 -1.2576
  161Sol     HW 3573   0.243   1.359   6.230 -1.1208  0.9419 -2.6103
  161Sol     MW 3574   0.212   1.428   6.277  0.0166  0.1360 -0.5706
  162Sol     OW 3575   1.547   0.965   4.648  0.6397  0.4748 -0.2076
  162Sol     HW 3576   1.547   0.914   4.567 -1.2239  1.6754 -0.9885
  162Sol     HW 3577   1.479   0.924   4.702 -0.7812  1.9998 -0.7892
  162Sol     MW 3578   1.541   0.957   4.646  0.1099 -0.0243 -0.7854
  163Sol     OW 3579   2.547   2.810   2.612 -0.3875  0.1459  0.0023
  163Sol     HW 3580   2.545   2.779   2.702  1.2920  0.2278  0.0884
  163Sol     HW 3581   2.499   2.893   2.613 -1.0425 -0.2370  0.6555
  163Sol     MW 3582   2.542   2.815   2.620  0.7863  0.1040 -0.1802
  164Sol     OW 3583   3.240   1.146   4.503 -0.1044 -0.5559 -0.1515
  164Sol     HW 3584   3.221   1.070   4.558  1.4122  0.2335  1.5413
  164Sol     HW 3585   3.164   1.203   4.515  0.0957 -0.5085  0.9388
  164Sol     MW 3586   3.231   1.144   4.509 -0.0766 -0.3592 -0.1069
  165Sol     OW 3587   2.503   2.132   7.748 -0.2470  0.5980  0.1761
  165Sol     HW 3588   2.428   2.182   7.715  0.2520  0.4646 -1.1999
  165Sol     HW 3589   2.473   2.041   7.748 -0.5522  0.6937  0.9752
  165Sol     MW 3590   2.494   2.128   7.745  0.0651 -0.0408  0.5671
  166Sol     OW 3591   1.198   1.489   8.945 -0.4716  0.1692  0.0741
  166Sol     HW 3592   1.250   1.524   9.018 -1.6391  0.6986  0.6564
  166Sol     HW 3593   1.119   1.543   8.943 -0.5973 -0.0528 -1.3849
  166Sol     MW 3594   1.196   1.497   8.951  0.4610 -0.2148 -0.1506
  167Sol     OW 3595   1.667   2.758   5.546 -0.5059 -0.4880  0.7062
  167Sol     HW 3596   1.719   2.763   5.465  1.5812 -1.2606  1.9618
  167Sol     HW 3597   1.595   2.699   5.524 -1.2220  1.0084 -1.2201
  167Sol     MW 3598   1.665   2.753   5.537 -0.1310  0.2088 -0.4386
  168Sol     OW 3599   1.963   1.403   5.540  0.0612 -0.2880  0.4604
  168Sol     HW 3600   2.049   1.367   5.520 -0.3129 -0.7598 -0.3343
  168Sol     HW 3601   1.973   1.498   5.533  0.7842 -0.2775  1.4825
  168Sol     MW 3602   1.972   1.408   5.538  0.4038  0.2445  0.0807
  169Sol     OW 3603   1.120   2.279   9.645  0.5190  0.1194 -0.3657
  169Sol     HW 3604   1.178   2.314   9.578 -0.9910  3.1344 -0.2019
  169Sol     HW 3605   1.163   2.301   9.728  0.3327  0.1827 -0.2840
  169Sol     MW 3606   1.129   2.284   9.646 -0.0283  0.5229  0.5363
  170Sol     OW 3607   0.538   1.428   2.052  0.0277 -0.3802 -0.5307
  170Sol     HW 3608   0.604   1.497   2.060 -0.8987  0.4590 -0.0232
  170Sol     HW 3609   0.469   1.454   2.112 -0.1032 -2.0399  0.0681
  170Sol     MW 3610   0.538   1.437   2.058  0.1800  0.1871 -0.4069
  171Sol     OW 3611   3.273   2.539   3.605 -0.5994  0.6165 -0.5044
  171Sol     HW 3612   3.313   2.492   3.678 -0.6490  3.5338  1.4855
  171Sol     HW 3613   3.345   2.586   3.564 -0.6291 -0.7597 -2.1958
  171Sol     MW 3614   3.283   2.539   3.608 -0.3370  0.3430 -0.0202
  172Sol     OW 3615   3.096   0.499   1.393  1.0036 -0.4583 -0.2864
  172Sol     HW 3616   3.158   0.544   1.336  0.9267  1.1543  0.8859
  172Sol     HW 3617   3.149   0.468   1.467  0.4802  0.7111  0.5970
  172Sol     MW 3618   3.106   0.500   1.395  0.5727  0.1100  0.1701
  173Sol     OW 3619   0.550   1.333   8.686  0.6395  0.3037 -0.1324
  173Sol     HW 3620   0.499   1.253   8.672  1.4115 -0.3768  0.9244
  173Sol     HW 3621   0.597   1.345   8.604  0.1248 -0.0348 -0.4849
  173Sol     MW 3622   0.549   1.327   8.677  0.1575 -0.1619 -0.0351
  174Sol     OW 3623   3.244   1.504   5.856 -0.2656  0.2007 -0.6006
  174Sol     HW 3624   3.190   1.561   5.911  0.7879  0.7142 -0.0763
  174Sol     HW 3625   3.221   1.415   5.884 -1.4077  0.3846 -0.9360
  174Sol     MW 3626   3.238   1.501   5.863 -0.4547 -0.0694  0.7412
  175Sol     OW 3627   2.863   1.945   2.187  0.0824 -0.1865 -0.4309
  175Sol     HW 3628   2.792   1.977   2.242  0.4199 -1.2440  0.6242
  175Sol     HW 3629   2.841   1.854   2.169  1.3505 -0.6203  0.2008
  175Sol     MW 3630   2.855   1.940   2.190 -0.2158  0.4956 -0.2847
  176Sol     OW 3631   1.913   3.356   2.611  0.1496  0.6217 -0.4852
  176Sol     HW 3632   1.983   3.390   2.667  0.9246 -0.9652 -0.4691
  176Sol     HW 3633   1.959   3.309   2.542 -0.9298 -2.7871  1.0306
  176Sol     MW 3634   1.923   3.355   2.610  0.1111  0.4624  0.2417
  177Sol     OW 3635   1.912   1.893   6.804  0.4502  0.1324 -0.0065
  177Sol     HW 3636   1.973   1.882   6.877  1.0662  0.3432 -0.4889
  177Sol     HW 3637   1.891   1.803   6.777  1.1223  0.0691 -0.3196
  177Sol     MW 3638   1.915   1.884   6.808  0.6539  0.6185  0.2307
  178Sol     OW 3639   2.346   1.790   4.359 -0.0350 -0.6595 -0.0270
  178Sol     HW 3640   2.329   1.790   4.265  0.8628  0.3296 -0.2098
  178Sol     HW 3641   2.272   1.836   4.398 -0.1554 -0.6252 -0.2995
  178Sol     MW 3642   2.338   1.794   4.354  0.0839  0.6460 -0.2767
  179Sol     OW 3643   1.640   2.727   2.985 -0.1021  0.0696  0.4732
  179Sol     HW 3644   1.647   2.784   3.061  1.7206  2.8633 -1.6674
  179Sol     HW 3645   1.727   2.688   2.976  0.1535  0.9164 -0.9794
  179Sol     MW 3646   1.648   2.729   2.991  0.4058 -0.2855  0.2122
  180Sol     OW 3647   0.741   1.946   8.462  0.0269 -0.0516  0.4478
  180Sol     HW 3648   0.804   1.875   8.449  0.5278  0.1291  1.7616
  180Sol     HW 3649   0.658   1.902   8.477  0.0967 -0.3260  0.0472
  180Sol     MW 3650   0.739   1.936   8.462 -0.3215 -0.5135 -0.8085
  181Sol     OW 3651   0.840   2.320   6.304  0.3104 -0.0311 -0.2717
  181Sol     HW 3652   0.768   2.301   6.244  1.0139 -0.5489 -0.9607
  181Sol     HW 3653   0.807   2.391   6.360 -0.5507  0.0705 -0.9077
  181Sol     MW 3654   0.831   2.325   6.303  0.3160 -0.3219 -0.0392
  182Sol     OW 3655   1.522   2.208   9.680 -0.6333 -0.2478  0.4498
  182Sol     HW 3656   1.453   2.182   9.741 -1.5805  0.7034 -0.1952
  182Sol     HW 3657   1.500   2.164   9.598 -0.4574  0.0312  0.2515
  182Sol     MW 3658   1.514   2.202   9.678 -0.1390 -0.3533 -0.6278
  183Sol     OW 3659   2.003   3.285   3.739 -0.9200  0.3673 -0.1323
  183Sol     HW 3660   1.983   3.252   3.827 -1.8258  1.5013  0.0962
  183Sol     HW 3661   2.096   3.267   3.728 -0.4457  1.5537  1.6676
  183Sol     MW 3662   2.009   3.280   3.746 -0.4672 -0.7539  1.1532
  184Sol     OW 3663   0.213   2.212   6.405  0.4584 -0.5235  0.2833
  184Sol     HW 3664   0.241   2.301   6.384  1.0951 -0.5672  0.9304
  184Sol     HW 3665   0.155   2.188   6.333  1.4159 -0.1160 -0.6349
  184Sol     MW 3666   0.210   2.218   6.397  0.4916 -0.4174 -0.2834
  185Sol     OW 3667   2.586   0.035   3.720 -0.0793 -0.3135  0.0214
  185Sol     HW 3668   2.625   0.123   3.723 -0.3961 -0.1770  0.1885
  185Sol     HW 3669   2.492   0.051   3.729 -0.3000 -0.5318 -1.7359
  185Sol     MW 3670   2.581   0.045   3.721  0.1483  0.3341  0.0598
  186Sol     OW 3671   0.349   0.145   9.121 -0.5766 -0.0085 -1.3263
  186Sol     HW 3672   0.300   0.065   9.136  1.2174 -0.3859  3.3228
  186Sol     HW 3673   0.287   0.215   9.141 -0.1055 -0.4251  1.7167
  186Sol     MW 3674   0.340   0.144   9.124  0.4704 -0.2331  0.2300
  187Sol     OW 3675   1.506   1.564   7.166 -1.1082  0.5305  0.3374
  187Sol     HW 3676   1.468   1.523   7.088 -1.0307  0.0130  0.5741
  187Sol     HW 3677   1.561   1.496   7.204 -2.7630  0.0949  2.0182
  187Sol     MW 3678   1.508   1.554   7.162  0.2746 -0.1021  0.3684
  188Sol     OW 3679   1.692   2.954   9.831 -0.5910 -0.1574  0.1824
  188Sol     HW 3680   1.762   3.016   9.810  0.0127 -0.9152 -0.0594
  188Sol     HW 3681   1.627   3.007   9.877  0.3622  0.4575  0.8572
  188Sol     MW 3682   1.693   2.964   9.833  0.2587 -0.0571 -0.7722
  189Sol     OW 3683   1.615   3.439   9.838 -0.2730 -0.6495 -0.0344
  189Sol     HW 3684   1.623   3.449   9.743  2.1646 -0.4645  0.1553
  189Sol     HW 3685   1.647   3.521   9.874  1.3452 -1.7072  1.0128
  189Sol     MW 3686   1.618   3.447   9.833 -0.1219  0.2319  0.3568
  190Sol     OW 3687   1.986   2.982   4.515  0.0942  0.3151  0.2145
  190Sol     HW 3688   2.068   2.960   4.470  0.7690 -0.2207  1.6534
  190Sol     HW 3689   1.958   2.900   4.555 -2.6230 -0.1667 -2.4861
  190Sol     MW 3690   1.991   2.973   4.514 -0.1037 -1.0010  0.1889
  191Sol     OW 3691   2.742   1.586   5.918  0.0800 -1.1855 -0.5971
  191Sol     HW 3692   2.783   1.620   5.998 -1.3641 -1.7891  0.4045
  191Sol     HW 3693   2.794   1.625   5.847 -0.3606  1.6422  0.5623
  191Sol     MW 3694   2.750   1.593   5.919  0.0450  0.1709 -0.0314
  192Sol     OW 3695   1.137   2.795   2.522 -0.1292 -0.1332  0.1963
  192Sol     HW 3696   1.113   2.703   2.512 -0.3603 -0.1905  1.1517
  192Sol     HW 3697   1.058   2.836   2.559  0.0676  0.3913  0.0427
  192Sol     MW 3698   1.127   2.791   2.525  0.2717  0.1680  0.1596
  193Sol     OW 3699   2.339   0.822   5.486  0.5925 -0.2181  0.6268
  193Sol     HW 3700   2.387   0.747   5.519  2.2117 -0.5968 -2.4550
  193Sol     HW 3701   2.255   0.819   5.532  2.3936 -1.1412  4.0306
  193Sol     MW 3702   2.336   0.815   5.493  0.3761 -0.0354  0.5459
  194Sol     OW 3703   2.478   0.647   3.315 -0.0924  0.3248  0.2044
  194Sol     HW 3704   2.511   0.666   3.403  0.3293 -0.0609  0.1332
  194Sol     HW 3705   2.549   0.674   3.257 -0.0200 -0.2318  0.0320
  194Sol     MW 3706   2.487   0.651   3.318  0.3531  0.2181  0.9360
  195Sol     OW 3707   0.473   0.779   7.013  0.8139  0.5154  0.1005
  195Sol     HW 3708   0.495   0.687   7.004  1.8812  0.5787  1.7813
  195Sol     HW 3709   0.434   0.787   7.099 -1.3355  1.2836 -0.9144
  195Sol     MW 3710   0.472   0.772   7.020  0.0769  0.4097 -0.0921
  196Sol     OW 3711   2.803   2.813   3.610 -0.2076 -0.0817 -0.3626
  196Sol     HW 3712   2.787   2.843   3.699  0.7269  1.5523 -0.7229
  196Sol     HW 3713   2.897   2.794   3.608 -0.2066 -0.0291 -1.0084
  196Sol     MW 3714   2.810   2.814   3.618 -0.4543 -0.5758 -0.2909
  197Sol     OW 3715   3.282   2.069   8.882  0.1102 -0.0955  0.2003
  197Sol     HW 3716   3.256   2.158   8.906  1.6158 -0.1461  2.1288
  197Sol     HW 3717   3.337   2.040   8.954  0.6934 -2.1362 -1.0288
  197Sol     MW 3718   3.284   2.074   8.891 -0.0371 -0.0571  0.2701
  198Sol     OW 3719   0.094   0.043   3.961  0.2153 -0.4428  0.0013
  198Sol     HW 3720   0.060  -0.028   4.016  1.0758 -0.6585  0.2545
  198Sol     HW 3721   0.059   0.024   3.874  0.2448 -1.0465  0.1174
  198Sol     MW 3722   0.088   0.035   3.958 -0.5404 -0.2372  0.0282
  199Sol     OW 3723   3.306   0.457   9.887 -0.6462  0.4957  0.4083
  199Sol     HW 3724   3.329   0.389   9.950 -1.1283 -0.6399 -0.6198
  199Sol     HW 3725   3.380   0.518   9.889  0.4148 -0.7749  0.3609
  199Sol     MW 3726   3.314   0.457   9.893  0.0906  0.6354 -0.5569
  200Sol     OW 3727   1.586   0.626   9.747  0.0371  0.1352 -0.6339
  200Sol     HW 3728   1.510   0.655   9.697 -0.3782  0.7383  0.3317
  200Sol     HW 3729   1.566   0.650   9.838  1.4578  0.4873 -0.3893
  200Sol     MW 3730   1.578   0.631   9.751  0.0621  0.0170 -0.8554
  201Sol     OW 3731   1.413   2.578   6.974  0.3147 -0.0226  0.4917
  201Sol     HW 3732   1.391   2.559   7.065 -0.4510  0.6588  0.4570
  201Sol     HW 3733   1.469   2.655   6.978  0.1101  0.1331  0.3730
  201Sol     MW 3734   1.416   2.583   6.982 -0.1264  0.4780  0.0192
  202Sol     OW 3735   1.488   1.103   9.450  0.2124  0.0478 -0.4287
  202Sol     HW 3736   1.560   1.164   9.435  0.2535  0.1704  0.2480
  202Sol     HW 3737   1.494   1.081   9.543 -1.2166  0.8110 -0.1342
  202Sol     MW 3738   1.495   1.106   9.457  0.0919 -0.1124  0.2927
  203Sol     OW 3739   2.397   1.149   7.011 -0.1924  0.1955  0.0019
  203Sol     HW 3740   2.431   1.072   7.057  0.5541  0.1346 -0.6362
  203Sol     HW 3741   2.476   1.198   6.987 -0.6252  0.6978 -0.3925
  203Sol     MW 3742   2.407   1.147   7.013  0.1744 -0.1622 -0.4717
  204Sol     OW 3743   1.394   0.339   6.814 -0.1336 -0.2031 -0.2048
  204Sol     HW 3744   1.465   0.276   6.797 -0.1085  0.0298 -1.0077
  204Sol     HW 3745   1.382   0.384   6.730  0.5514  1.5853  0.6255
  204Sol     MW 3746   1.400   0.337   6.805 -0.2361 -0.2438 -0.2741
  205Sol     OW 3747   0.392   2.275   1.352 -0.1772  0.2155 -0.0746
  205Sol     HW 3748   0.343   2.316   1.281  0.8140  3.0033  0.7538
  205Sol     HW 3749   0.326   2.251   1.417 -0.8609 -0.2798 -0.9503
  205Sol     MW 3750   0.382   2.277   1.352  0.1972  0.2257 -0.2564
  206Sol     OW 3751   1.553   0.895   3.129  0.1623  0.4628  0.1300
  206Sol     HW 3752   1.470   0.929   3.162 -0.7639 -0.2400 -1.4157
  206Sol     HW 3753   1.618   0.929   3.189 -1.3260  0.4311  1.7990
  206Sol     MW 3754   1.551   0.901   3.137  0.1410 -0.5526 -0.5282
  207Sol     OW 3755   0.949   3.243   3.963 -0.3280 -0.0017 -0.0256
  207Sol     HW 3756   0.941   3.337   3.947  0.8690 -0.1087 -1.3015
  207Sol     HW 3757   0.926   3.233   4.056 -1.4723  1.4054 -0.1464
  207Sol     MW 3758   0.947   3.250   3.970  0.0896  0.8852 -0.3057
  208Sol     OW 3759   1.897   0.172   8.321 -0.8932  0.5251 -0.1146
  208Sol     HW 3760   1.884   0.163   8.415  0.0089 -1.8895 -0.1847
  208Sol     HW 3761   1.854   0.254   8.298 -0.7731  1.3313  2.4603
  208Sol     MW 3762   1.892   0.178   8.327  0.1129  0.3848  0.1847
  209Sol     OW 3763   2.540   0.241   4.884  0.4537  0.0564  0.3116
  209Sol     HW 3764   2.625   0.212   4.918  0.8527 -0.9617 -1.4487
  209Sol     HW 3765   2.523   0.324   4.929  1.4023 -0.7315  2.1845
  209Sol     MW 3766   2.546   0.246   4.891  0.2310  0.4507 -0.5542
  210Sol     OW 3767   2.228   3.373   7.404  0.4087 -0.0930 -0.3822
  210Sol     HW 3768   2.162   3.429   7.446 -1.1871 -1.2967 -1.2644
  210Sol     HW 3769   2.210   3.285   7.438  1.0205 -0.5691 -1.2851
  210Sol     MW 3770   2.221   3.370   7.411 -0.1952  0.0705 -0.8166
  211Sol     OW 3771   0.385   3.197   7.946 -0.1382 -0.1221  0.6569
  211Sol     HW 3772   0.337   3.141   8.007 -2.0533  0.0336 -0.6672
  211Sol     HW 3773   0.401   3.141   7.870  0.1038  0.4020  0.3158
  211Sol     MW 3774   0.383   3.187   7.944  0.5470  0.1708  0.2564
  212Sol     OW 3775   1.756   2.557   8.659  0.0792  0.7516  0.0858
  212Sol     HW 3776   1.744   2.642   8.702  0.2214  0.9363 -0.2387
  212Sol     HW 3777   1.813   2.576   8.584  1.2067  0.1457  0.7745
  212Sol     MW 3778   1.760   2.566   8.656 -0.5003 -0.5272 -0.0182
  213Sol     OW 3779   2.182   1.443   3.572 -0.2823 -0.5469 -0.2466
  213Sol     HW 3780   2.198   1.460   3.479 -0.2143  3.1808  0.3643
  213Sol     HW 3781   2.249   1.493   3.617 -1.4565 -0.8221  1.8727
  213Sol     MW 3782   2.189   1.449   3.568 -0.7220  0.0691 -0.1938
  214Sol     OW 3783   2.754   1.743   8.572 -0.3705  0.3573 -0.3415
  214Sol     HW 3784   2.702   1.810   8.528  0.0368  1.5157  0.9341
  214Sol     HW 3785   2.738   1.756   8.665  0.4925 -0.6769 -0.0333
  214Sol     MW 3786   2.748   1.750   8.576 -0.2526 -0.0600 -0.4772
  215Sol     OW 3787   0.126   2.879   2.524 -0.4357 -0.3390 -0.3782
  215Sol     HW 3788   0.088   2.952   2.573 -1.1517 -0.4933 -0.6907
  215Sol     HW 3789   0.202   2.917   2.479  0.6941 -0.3832  1.4648
  215Sol     MW 3790   0.129   2.889   2.524 -0.3126  0.4251  0.0229
  216Sol     OW 3791   2.790   1.806   4.626  0.2835  0.2749 -0.2107
  216Sol     HW 3792   2.854   1.855   4.678  1.5612 -0.6498 -0.8874
  216Sol     HW 3793   2.722   1.870   4.606  1.2688  1.4272  0.0424
  216Sol     MW 3794   2.789   1.816   4.629 -0.5223 -0.5934 -0.0802
  217Sol     OW 3795   1.128   1.865   6.329 -0.0599  0.4796 -0.4789
  217Sol     HW 3796   1.179   1.787   6.352 -0.0801  0.5828 -0.0711
  217Sol     HW 3797   1.048   1.830   6.288  1.0141  0.3723 -2.5141
  217Sol     MW 3798   1.125   1.855   6.328  0.5877  0.3553  0.5405
  218Sol     OW 3799   2.918   2.316   7.333  0.3443 -0.4859  0.5132
  218Sol     HW 3800   2.924   2.366   7.415  0.2615 -0.0404  0.2432
  218Sol     HW 3801   2.988   2.251   7.340  1.1434  0.3569  0.3826
  218Sol     MW 3802   2.925   2.314   7.341 -0.0956  0.2157  0.1114
  219Sol     OW 3803   2.213   0.508   5.357 -0.3053  0.1186  0.4838
  219Sol     HW 3804   2.162   0.513   5.438 -5.3055  2.6645 -2.5682
  219Sol     HW 3805   2.259   0.592   5.352 -1.4271  0.7146 -0.1116
  219Sol     MW 3806   2.213   0.516   5.364  0.2845  0.3990 -0.3387
  220Sol     OW 3807   1.395   3.269   6.847  0.4044  0.0516  0.1929
  220Sol     HW 3808   1.423   3.203   6.784 -3.0850 -1.8232  0.5088
  220Sol     HW 3809   1.345   3.332   6.795  3.6044  2.5336 -0.0909
  220Sol     MW 3810   1.393   3.269   6.837  0.4824 -0.1164  0.0086
  221Sol     OW 3811   2.425   2.156   6.019 -0.2022  0.6045 -0.0208
  221Sol     HW 3812   2.427   2.092   6.090 -0.2113  0.7445  0.1064
  221Sol     HW 3813   2.378   2.231   6.056  0.1919  0.8562 -0.0258
  221Sol     MW 3814   2.421   2.157   6.029  0.1981 -0.0332  0.1693
  222Sol     OW 3815   2.217   2.645   9.166  0.2074  0.2000 -0.1039
  222Sol     HW 3816   2.245   2.575   9.107  0.3093 -1.5145  1.9267
  222Sol     HW 3817   2.296   2.696   9.183  0.3673  0.1662 -0.7466
  222Sol     MW 3818   2.226   2.643   9.162  0.0512 -0.4707 -0.3016
  223Sol     OW 3819   0.073   2.169   2.129 -0.3033  0.1959 -0.2219
  223Sol     HW 3820   0.114   2.244   2.172 -2.3529  0.7082  0.8820
  223Sol     HW 3821   0.140   2.137   2.068  1.3784  1.5791  0.8544
  223Sol     MW 3822   0.083   2.173   2.127 -0.0357  0.4169 -0.0242
  224Sol     OW 3823   1.159   2.184   6.962 -0.4314 -0.6619  0.6621
  224Sol     HW 3824   1.165   2.273   6.927 -1.9217 -0.9232 -0.3148
  224Sol     HW 3825   1.234   2.176   7.021  1.5465  0.1668 -1.6623
  224Sol     MW 3826   1.166   2.192   6.964  0.5673 -0.4254 -0.2376
  225Sol     OW 3827   0.379   0.871   3.095 -0.4694  0.3845 -0.2457
  225Sol     HW 3828   0.327   0.868   3.176  0.9915  1.1631  0.7548
  225Sol     HW 3829   0.373   0.783   3.059 -0.4692 -0.2034  1.1651
  225Sol     MW 3830   0.374   0.863   3.099  0.6268 -0.1131 -0.0623
  226Sol     OW 3831   0.516   1.921   4.312 -0.6290  0.4092 -0.3891
  226Sol     HW 3832   0.509   1.957   4.223 -0.4326  1.5674  0.0687
  226Sol     HW 3833   0.578   1.849   4.303  0.1465  1.1456 -0.9960
  226Sol     MW 3834   0.521   1.918   4.303 -0.7340  0.3148  0.2679
  227Sol     OW 3835   2.597   1.356   5.825  0.2286 -0.1153  0.7095
  227Sol     HW 3836   2.658   1.418   5.865 -0.8400  0.8381  0.8738
  227Sol     HW 3837   2.516   1.406   5.812 -0.1341 -1.0108 -0.6617
  227Sol     MW 3838   2.595   1.366   5.827  0.5949  0.2372  0.3839
  228Sol     OW 3839   1.245   1.730   8.514  0.4315 -0.6106 -0.0975
  228Sol     HW 3840   1.339   1.730   8.497  0.5967 -1.1474  0.7546
  228Sol     HW 3841   1.204   1.728   8.428  1.2053 -0.6851 -0.4640
  228Sol     MW 3842   1.250   1.730   8.505 -0.1179  0.0043  0.2461
  229Sol     OW 3843   1.025   2.632   3.778  0.1477 -0.0984 -0.3655
  229Sol     HW 3844   1.005   2.539   3.791 -1.5707  0.2911 -0.0311
  229Sol     HW 3845   0.977   2.655   3.698  1.0671  0.3618 -0.7890
  229Sol     MW 3846   1.019   2.626   3.772  0.5267 -0.1854  0.0040
  230Sol     OW 3847   1.422   2.622   4.821  0.6378  0.0386 -0.1845
  230Sol     HW 3848   1.456   2.599   4.735  0.8377 -1.2599  0.2328
  230Sol     HW 3849   1.407   2.538   4.864  0.1930  0.6713  0.9148
  230Sol     MW 3850   1.423   2.612   4.817 -0.2842 -0.4577  0.3981
  231Sol     OW 3851   0.952   2.263   4.520  0.1012 -0.1114 -0.2971
  231Sol     HW 3852   0.947   2.256   4.425 -2.0188  0.5132 -0.2585
  231Sol     HW 3853   0.921   2.351   4.540  0.5756 -0.2111  0.9768
  231Sol     MW 3854   0.949   2.270   4.514 -0.3200  0.0275 -0.1236
  232Sol     OW 3855   0.208   1.089   2.473  0.0025  0.5612  0.0603
  232Sol     HW 3856   0.142   1.158   2.466 -1.6481 -1.0609 -0.9521
  232Sol     HW 3857   0.178   1.035   2.547  0.9448  0.5996  0.4678
  232Sol     MW 3858   0.199   1.090   2.479  0.2316  0.4932  0.7138
  233Sol     OW 3859   1.404   0.115   2.735 -0.0707 -0.3044 -0.1753
  233Sol     HW 3860   1.486   0.066   2.727  0.0945  0.0424 -0.6330
  233Sol     HW 3861   1.428   0.205   2.714 -0.2772  0.0648  1.1203
  233Sol     MW 3862   1.413   0.119   2.732  0.4573  0.4041 -0.1307
  234Sol     OW 3863   2.697   0.299   4.483 -0.0727 -0.4418 -0.0465
  234Sol     HW 3864   2.641   0.375   4.498 -1.7315 -2.3123  3.9340
  234Sol     HW 3865   2.655   0.228   4.530  4.5797 -2.4065  1.4888
  234Sol     MW 3866   2.688   0.299   4.489 -0.1955  0.3739  0.0037
  235Sol     OW 3867   2.380   2.964   4.364  0.8646 -0.5667  0.0990
  235Sol     HW 3868   2.375   2.962   4.459  1.0278 -0.0902  0.1202
  235Sol     HW 3869   2.459   2.916   4.343  0.7920 -0.7299  0.2018
  235Sol     MW 3870   2.386   2.960   4.371  0.0725 -0.1117 -0.0669
  236Sol     OW 3871   0.160   2.130   5.172 -0.3412  0.4437 -0.0716
  236Sol     HW 3872   0.073   2.097   5.149  0.1545 -1.2221  0.3515
  236Sol     HW 3873   0.217   2.052   5.167  0.7160  1.0824  1.7441
  236Sol     MW 3874   0.158   2.120   5.169  0.5076  0.2984  0.5384
  237Sol     OW 3875   1.673   1.456   9.169  0.2511  0.4130  0.0899
  237Sol     HW 3876   1.732   1.404   9.225  0.2574 -0.8648 -1.0727
  237Sol     HW 3877   1.679   1.414   9.083 -2.8320 -0.1385  0.0849
  237Sol     MW 3878   1.679   1.447   9.166 -0.1399 -0.5073  0.6026
  238Sol     OW 3879   0.629   3.284   7.168  0.3067 -0.8274  0.2594
  238Sol     HW 3880   0.617   3.235   7.087 -0.5386 -0.5912  0.2380
  238Sol     HW 3881   0.582   3.233   7.234 -0.0822 -0.3607  0.3473
  238Sol     MW 3882   0.624   3.275   7.167 -0.0628 -0.2375  0.7497
  239Sol     OW 3883   0.714   1.067   2.531  0.0805  0.4847  0.9350
  239Sol     HW 3884   0.666   1.115   2.463  3.3068 -0.0827 -1.8772
  239Sol     HW 3885   0.686   0.976   2.518  1.2716  0.2629 -0.2090
  239Sol     MW 3886   0.707   1.063   2.524  0.1186 -0.4119  0.1760
  240Sol     OW 3887   1.153   2.520   5.422  0.5455 -0.0328 -0.1066
  240Sol     HW 3888   1.073   2.571   5.408  0.6021 -0.1967 -1.0503
  240Sol     HW 3889   1.126   2.447   5.477 -0.4468 -1.3137 -2.2135
  240Sol     MW 3890   1.143   2.518   5.425  0.8364  0.1342 -0.1742
  241Sol     OW 3891   0.147   1.740   4.921 -0.0655  0.3111  0.2152
  241Sol     HW 3892   0.056   1.758   4.898  0.0406  0.3785 -0.1448
  241Sol     HW 3893   0.149   1.646   4.940  0.0993  0.0183 -1.2116
  241Sol     MW 3894   0.139   1.733   4.921  0.1025  0.1695  0.6339
  242Sol     OW 3895   1.501   1.684   5.478 -0.9497 -0.1953  0.7317
  242Sol     HW 3896   1.592   1.713   5.468 -0.8855 -0.8327 -0.7358
  242Sol     HW 3897   1.504   1.621   5.550 -0.1594 -0.4613  0.4770
  242Sol     MW 3898   1.510   1.681   5.483 -0.0264  0.0504 -0.3004
  243Sol     OW 3899   1.236   2.020   5.020 -0.2961 -0.4122  0.0076
  243Sol     HW 3900   1.181   1.955   5.065  1.9202 -1.4889  1.2275
  243Sol     HW 3901   1.290   1.968   4.960  0.2871  0.5069 -0.2683
  243Sol     MW 3902   1.236   2.010   5.018 -0.0487  0.2507  0.1862
  244Sol     OW 3903   3.233   1.268   9.300 -0.0312 -0.2926  0.2334
  244Sol     HW 3904   3.255   1.361   9.291 -0.4467 -0.2174  0.0093
  244Sol     HW 3905   3.190   1.262   9.385 -0.9379 -0.1051 -0.2112
  244Sol     MW 3906   3.231   1.276   9.307  0.5187 -0.1120 -0.0530
  245Sol     OW 3907   2.737   2.430   5.821  0.0629  0.3728  0.0895
  245Sol     HW 3908   2.715   2.493   5.753  0.9924 -0.6877 -1.2115
  245Sol     HW 3909   2.832   2.418   5.813 -0.2549 -2.1142 -0.5226
  245Sol     MW 3910   2.744   2.434   5.814  0.5281 -0.3317  0.2990
  246Sol     OW 3911   3.102   2.652   8.067 -0.0849 -0.0968 -0.1432
  246Sol     HW 3912   3.121   2.623   8.156  1.1372 -0.6245 -0.5747
  246Sol     HW 3913   3.061   2.738   8.078  0.7071  0.1544  0.8926
  246Sol     MW 3914   3.100   2.657   8.076 -0.0247 -0.3438  0.2252
  247Sol     OW 3915   1.009   2.179   3.637  0.1346  0.0459 -0.5311
  247Sol     HW 3916   1.019   2.252   3.697  2.0892 -0.9205  0.3817
  247Sol     HW 3917   1.018   2.217   3.550  0.3763  0.9981 -0.0873
  247Sol     MW 3918   1.011   2.189   3.635 -0.3455 -0.3410 -0.3581
  248Sol     OW 3919   0.417   0.564   5.986 -0.1081  0.4767 -1.0489
  248Sol     HW 3920   0.331   0.554   6.027 -1.1760  2.8600 -2.5992
  248Sol     HW 3921   0.398   0.575   5.893  1.9392  0.3992 -1.5124
  248Sol     MW 3922   0.408   0.564   5.981  0.0464  0.3916  0.0319
  249Sol     OW 3923   3.148   1.392   5.625 -0.1896  0.5116 -0.3033
  249Sol     HW 3924   3.057   1.408   5.600 -0.5883 -0.6935  0.3807
  249Sol     HW 3925   3.168   1.460   5.690 -0.8793  0.2128  0.2184
  249Sol     MW 3926   3.142   1.400   5.628 -0.0688 -0.6806 -0.1257
  250Sol     OW 3927   2.100   1.904   6.196 -0.4725 -0.0442  0.1115
  250Sol     HW 3928   2.082   1.978   6.139 -1.2305 -0.2048  0.1368
  250Sol     HW 3929   2.101   1.828   6.137 -1.6825 -0.2661  0.3607
  250Sol     MW 3930   2.098   1.904   6.185  0.1260 -0.0690 -0.2467
  251Sol     OW 3931   2.829   2.116   6.688 -0.3254 -0.1282  0.0824
  251Sol     HW 3932   2.769   2.142   6.758  0.2253 -0.1048  0.5554
  251Sol     HW 3933   2.796   2.031   6.658  1.2897 -1.7561  2.6341
  251Sol     MW 3934   2.821   2.110   6.692 -0.1246  0.0454 -0.0632
  252Sol     OW 3935   1.658   3.102   2.535  0.3116  0.4704 -0.3117
  252Sol     HW 3936   1.657   3.007   2.548 -0.6510  0.4331 -0.6004
  252Sol     HW 3937   1.729   3.117   2.473  2.1408  0.2127  1.6685
  252Sol     MW 3938   1.664   3.095   2.531 -0.2092 -0.0732  0.0876
  253Sol     OW 3939   2.595   0.272   6.127  0.0544  0.5802  0.7101
  253Sol     HW 3940   2.574   0.184   6.094 -0.7155 -0.1107  2.9666
  253Sol     HW 3941   2.631   0.317   6.051 -1.8192 -0.8877 -1.1321
  253Sol     MW 3942   2.596   0.268   6.117 -0.1735 -0.7345  0.0683
  254Sol     OW 3943   2.255   0.317   2.736 -0.0277  0.0490  0.0608
  254Sol     HW 3944   2.280   0.314   2.829 -0.2103  0.2369  0.1146
  254Sol     HW 3945   2.189   0.386   2.731 -1.5666 -1.3845  0.1628
  254Sol     MW 3946   2.252   0.323   2.744 -0.7784 -0.0247 -0.3598
  255Sol     OW 3947   1.584   2.397   2.219 -0.8895  0.3501  0.6359
  255Sol     HW 3948   1.664   2.450   2.215 -0.5984 -0.2059 -1.5931
  255Sol     HW 3949   1.513   2.461   2.222 -0.4673  0.8628 -0.2242
  255Sol     MW 3950   1.585   2.408   2.219  0.0367 -0.7886  0.4345
  256Sol     OW 3951   3.087   2.896   4.580 -0.2056 -0.7613 -0.2791
  256Sol     HW 3952   3.047   2.862   4.500 -1.3400 -0.8096  0.2897
  256Sol     HW 3953   3.012   2.919   4.635  0.5662 -0.0512  0.4794
  256Sol     MW 3954   3.076   2.895   4.578  0.4218 -0.2236  0.1863
  257Sol     OW 3955   2.486   2.611   5.098 -0.5037  0.7070 -0.2439
  257Sol     HW 3956   2.408   2.595   5.044  0.4445 -0.7700 -1.1994
  257Sol     HW 3957   2.459   2.586   5.186 -0.8313 -0.7240 -0.7327
  257Sol     MW 3958   2.477   2.607   5.101  0.2882 -0.1440  0.6417
  258Sol     OW 3959   0.656   0.063   3.862 -0.5048 -0.2094  0.2878
  258Sol     HW 3960   0.603  -0.016   3.867 -1.4273  0.4231  0.5417
  258Sol     HW 3961   0.595   0.134   3.879  0.3400  0.5546  0.1534
  258Sol     MW 3962   0.646   0.062   3.864 -0.0633  0.0675  1.1252
  259Sol     OW 3963   2.859   2.793   8.198  0.3556 -0.3460  0.4076
  259Sol     HW 3964   2.790   2.817   8.136  1.3617 -0.7187 -0.8767
  259Sol     HW 3965   2.836   2.838   8.279 -0.5159  0.8322 -0.4929
  259Sol     MW 3966   2.851   2.799   8.199  0.5594 -0.6664 -0.1601
  260Sol     OW 3967   1.652   0.816   2.110  0.5886 -0.3488 -0.4290
  260Sol     HW 3968   1.575   0.859   2.147  0.5202 -1.3001  0.5457
  260Sol     HW 3969   1.643   0.829   2.016  0.4516  1.5809 -0.1755
  260Sol     MW 3970   1.644   0.821   2.105 -1.0336  0.0029 -0.3507
  261Sol     OW 3971   0.742   3.299   6.764  0.1758  0.4009  0.1477
  261Sol     HW 3972   0.697   3.233   6.817 -1.3447 -0.2173 -1.8268
  261Sol     HW 3973   0.711   3.383   6.798 -0.8626  0.0049  0.2172
  261Sol     MW 3974   0.735   3.301   6.772 -0.8279  0.5233 -0.6512
  262Sol     OW 3975   2.475   1.583   7.402  0.2222 -0.0985  0.1498
  262Sol     HW 3976   2.418   1.513   7.436  0.9448 -0.7383  0.0691
  262Sol     HW 3977   2.503   1.631   7.479 -2.2040  1.6062 -0.0009
  262Sol     MW 3978   2.472   1.581   7.412  0.3155  0.0597 -0.2822
  263Sol     OW 3979   2.240   2.729   8.170  0.3122  0.0008 -0.1072
  263Sol     HW 3980   2.206   2.713   8.258 -1.6254  3.3871 -0.1419
  263Sol     HW 3981   2.333   2.747   8.183 -0.0367  0.8415  1.3071
  263Sol     MW 3982   2.245   2.729   8.179  0.3510 -0.5772  0.0429
  264Sol     OW 3983   2.115   1.282   3.152 -0.2537  0.8039 -0.3849
  264Sol     HW 3984   2.082   1.224   3.220  1.6596  1.9769  1.6159
  264Sol     HW 3985   2.089   1.241   3.070 -0.9995 -1.6122  1.0294
  264Sol     MW 3986   2.110   1.273   3.151  0.0325 -0.2104  0.2507
  265Sol     OW 3987   2.363   3.421   5.359 -0.2381 -0.2728 -0.2565
  265Sol     HW 3988   2.376   3.343   5.306 -0.5103  0.5512 -1.5741
  265Sol     HW 3989   2.359   3.493   5.296 -4.1487  0.3352  0.5191
  265Sol     MW 3990   2.364   3.421   5.349 -0.2962  0.1553 -0.1745
  266Sol     OW 3991   0.298   0.973   9.777  0.0540  0.1945  0.1254
  266Sol     HW 3992   0.209   0.969   9.811 -0.2049 -1.6813 -0.6839
  266Sol     HW 3993   0.290   1.020   9.694 -0.0003  1.0180  0.5991
  266Sol     MW 3994   0.289   0.977   9.772 -0.6205  0.3972  0.0160
  267Sol     OW 3995   1.292   2.897   6.936  0.2777  0.5170 -0.9371
  267Sol     HW 3996   1.377   2.857   6.914 -0.5399 -2.0628  0.4039
  267Sol     HW 3997   1.244   2.899   6.853  0.7149 -0.3739 -1.2225
  267Sol     MW 3998   1.296   2.894   6.927 -0.4192 -0.6040  0.5965
  268Sol     OW 3999   1.642   3.398   7.795  0.4038 -0.5995  0.1683
  268Sol     HW 4000   1.555   3.358   7.795 -0.0172  0.2833  1.4661
  268Sol     HW 4001   1.697   3.335   7.841  0.4937 -1.2122 -0.7548
  268Sol     MW 4002   1.639   3.389   7.799 -0.3570  0.1832  0.2026
  269Sol     OW 4003   1.661   0.512   3.497 -0.2957 -0.5992 -0.0122
  269Sol     HW 4004   1.566   0.519   3.505 -0.5701 -2.5716 -1.1046
  269Sol     HW 4005   1.691   0.489   3.585 -0.5642  2.0670  0.8356
  269Sol     MW 4006   1.655   0.511   3.505  0.1097 -0.0008  0.1430
  270Sol     OW 4007   0.510   2.299   4.057  0.0130  0.0103 -0.0891
  270Sol     HW 4008   0.465   2.219   4.031  0.1390 -0.3301  0.7413
  270Sol     HW 4009   0.504   2.301   4.152  0.2866  0.8259 -0.0809
  270Sol     MW 4010   0.505   2.292   4.063  0.1107  0.2052  0.0364
  271Sol     OW 4011   0.882   1.199   7.773  0.1908  0.0289  0.5451
  271Sol     HW 4012   0.814   1.167   7.832  1.4338 -4.0721 -0.1088
  271Sol     HW 4013   0.954   1.225   7.830 -0.4594  0.7384  1.0460
  271Sol     MW 4014   0.882   1.199   7.783  0.1537 -0.3725 -0.5811
  272Sol     OW 4015   2.449   1.551   6.722  0.0079 -0.4466 -0.9787
  272Sol     HW 4016   2.457   1.461   6.690 -2.1525 -1.4752  1.1848
  272Sol     HW 4017   2.532   1.569   6.766  1.0359 -0.8019 -2.7070
  272Sol     MW 4018   2.457   1.545   6.723 -0.1392 -0.4413  0.3192
  273Sol     OW 4019   1.483   1.216   7.735  0.2152  0.4219 -0.7108
  273Sol     HW 4020   1.569   1.236   7.771 -0.7943  1.9648  0.9239
  273Sol     HW 4021   1.491   1.231   7.641  2.0804 -0.7737 -0.7626
  273Sol     MW 4022   1.491   1.219   7.730  0.9091 -0.0818 -0.6689
  274Sol     OW 4023   1.177   2.889   3.696  0.4296  0.1621 -0.2581
  274Sol     HW 4024   1.108   2.914   3.757  0.0856  0.8713 -0.9419
  274Sol     HW 4025   1.200   2.800   3.722 -1.0702 -0.2607 -0.3381
  274Sol     MW 4026   1.173   2.883   3.704 -0.3395 -0.6750  0.2771
  275Sol     OW 4027   1.059   0.240   1.970  0.0638 -0.1131 -0.2160
  275Sol     HW 4028   0.973   0.222   1.932  0.2185 -0.5722 -0.3478
  275Sol     HW 4029   1.121   0.201   1.909  0.4632  1.9419 -1.1623
  275Sol     MW 4030   1.057   0.235   1.961  0.3055  0.7019  0.3140
  276Sol     OW 4031   0.335   0.827   5.260 -0.2573  0.6677 -0.3526
  276Sol     HW 4032   0.418   0.782   5.243 -1.4101 -1.4211 -0.7231
  276Sol     HW 4033   0.321   0.881   5.182 -0.6241 -1.2086 -1.6388
  276Sol     MW 4034   0.341   0.828   5.251  0.4970 -0.2750 -0.3044
  277Sol     OW 4035   1.350   0.150   8.160  0.3536 -0.1357  0.2954
  277Sol     HW 4036   1.369   0.056   8.155  1.0756 -0.0156  0.7298
  277Sol     HW 4037   1.415   0.184   8.220  0.0805  0.6484  0.1480
  277Sol     MW 4038   1.357   0.144   8.165 -0.1817 -0.0422  0.0443
  278Sol     OW 4039   2.867   3.328   7.604  0.0141  0.6389  0.0752
  278Sol     HW 4040   2.956   3.331   7.639 -0.1104 -0.4713  0.4989
  278Sol     HW 4041   2.831   3.246   7.637 -0.5941  0.2568 -1.5026
  278Sol     MW 4042   2.872   3.321   7.610  0.9362 -0.4339 -0.3287
  279Sol     OW 4043   1.493   1.337   9.811  0.5076  0.4758 -0.8745
  279Sol     HW 4044   1.524   1.259   9.764 -0.0166  0.2747 -0.8830
  279Sol     HW 4045   1.438   1.383   9.747  0.8640  0.8830 -0.8890
  279Sol     MW 4046   1.491   1.334   9.801  0.4447  0.0439  0.4470
  280Sol     OW 4047   0.798   0.484   6.839  0.7998  0.1254 -0.1094
  280Sol     HW 4048   0.832   0.395   6.827  0.1856 -0.0360 -0.6634
  280Sol     HW 4049   0.783   0.491   6.933  1.3308 -0.1770  0.0042
  280Sol     MW 4050   0.800   0.476   6.846  0.4992 -0.3793 -0.3174
  281Sol     OW 4051   3.303   3.255   4.061 -0.2833 -0.1032  0.1599
  281Sol     HW 4052   3.225   3.245   4.007 -0.0367  0.9419 -0.3922
  281Sol     HW 4053   3.330   3.165   4.080 -2.0779 -0.4869  1.0319
  281Sol     MW 4054   3.298   3.246   4.058 -0.2778  0.7677  0.1938
  282Sol     OW 4055   2.072   0.944   4.878 -0.2095 -0.4825 -0.3119
  282Sol     HW 4056   2.132   1.003   4.834  0.3401 -1.7799 -1.3407
  282Sol     HW 4057   2.033   0.892   4.808 -0.4638 -1.5173  0.5735
  282Sol     MW 4058   2.074   0.944   4.868 -0.5896 -0.1162 -0.3231
  283Sol     OW 4059   0.946   2.697   5.637 -0.0481  0.2774 -0.0748
  283Sol     HW 4060   0.948   2.616   5.587  0.1279  0.3141 -0.1257
  283Sol     HW 4061   1.031   2.738   5.620 -0.2054  0.5579 -0.1939
  283Sol     MW 4062   0.953   2.694   5.631  0.2084 -0.1648  0.1164
  284Sol     OW 4063   0.971   0.188   2.236 -0.4073  0.3406 -0.2640
  284Sol     HW 4064   0.998   0.209   2.146 -1.1678  3.7664  0.2233
  284Sol     HW 4065   0.891   0.136   2.225  0.0122 -0.0400 -1.5832
  284Sol     MW 4066   0.966   0.185   2.227 -0.2722 -0.9413 -0.7356
  285Sol     OW 4067   1.842   0.756   1.579 -0.0243 -0.2905 -0.3919
  285Sol     HW 4068   1.878   0.820   1.639 -1.0418 -0.2803  0.2237
  285Sol     HW 4069   1.780   0.806   1.525  0.5061 -0.3998 -1.1114
  285Sol     MW 4070   1.839   0.766   1.579 -0.0958  0.2290 -0.4754
  286Sol     OW 4071   0.171   2.522   2.015  0.0521 -0.2023 -0.9970
  286Sol     HW 4072   0.139   2.589   1.956 -2.5875  1.5927  2.2879
  286Sol     HW 4073   0.102   2.456   2.016 -0.5093  0.3875  0.9736
  286Sol     MW 4074   0.162   2.522   2.010 -0.6462 -0.1825 -0.0544
  287Sol     OW 4075   3.117   1.108   9.093  0.4455 -0.4799 -0.2307
  287Sol     HW 4076   3.179   1.173   9.059  1.1356 -1.1166 -0.1996
  287Sol     HW 4077   3.119   1.121   9.187  0.2816 -0.2776 -0.2546
  287Sol     MW 4078   3.123   1.115   9.098  0.7377  0.1058  0.0574
  288Sol     OW 4079   1.993   1.889   2.404 -0.2425  0.5562  0.1442
  288Sol     HW 4080   1.952   1.908   2.488 -0.9355  0.7073 -0.2248
  288Sol     HW 4081   1.999   1.793   2.402 -2.5126  0.4088 -0.6963
  288Sol     MW 4082   1.990   1.882   2.411  0.1760 -0.1368 -0.5256
  289Sol     OW 4083   1.094   0.187   3.142  0.6625 -0.5719 -0.6548
  289Sol     HW 4084   1.040   0.164   3.067  0.1545 -0.8422 -0.2171
  289Sol     HW 4085   1.167   0.237   3.106  0.1355 -0.2327 -1.2563
  289Sol     MW 4086   1.096   0.189   3.132 -0.2906  0.1688 -0.3314
  290Sol     OW 4087   2.204   0.913   3.266 -0.1644 -0.2515 -0.1027
  290Sol     HW 4088   2.271   0.951   3.210 -1.0955 -1.6952 -2.2721
  290Sol     HW 4089   2.252   0.882   3.343  1.0404  2.3682  0.2608
  290Sol     MW 4090   2.214   0.914   3.268 -0.2568 -0.0270  0.1600
  291Sol     OW 4091   3.285   0.213   9.721 -0.0988  0.0095 -0.2215
  291Sol     HW 4092   3.234   0.194   9.642 -0.4424 -0.2137  0.0592
  291Sol     HW 4093   3.272   0.307   9.735 -0.0149  0.0558 -0.4434
  291Sol     MW 4094   3.279   0.220   9.715 -0.5069  0.3425  0.0408
  292Sol     OW 4095   2.254   3.346   8.157 -0.3649 -0.2229 -0.3131
  292Sol     HW 4096   2.209   3.278   8.107 -1.4943  1.0593 -1.0886
  292Sol     HW 4097   2.189   3.375   8.221  0.4805 -0.6334  0.7304
  292Sol     MW 4098   2.244   3.343   8.158  0.0832  0.2063 -0.3503
  293Sol     OW 4099   2.745   2.310   8.756  0.4438 -0.1543 -0.3175
  293Sol     HW 4100   2.833   2.285   8.785  0.2766  1.3234  1.4874
  293Sol     HW 4101   2.755   2.323   8.661  2.3807  0.8867  0.0051
  293Sol     MW 4102   2.754   2.309   8.750 -0.0653  0.2376 -0.1480
  294Sol     OW 4103   1.568   2.998   4.699  0.0299 -0.5535 -0.0729
  294Sol     HW 4104   1.479   3.028   4.683  1.4675  2.9901 -2.0054
  294Sol     HW 4105   1.595   3.045   4.778  0.8802  0.0537 -0.7121
  294Sol     MW 4106   1.563   3.005   4.705 -0.3959 -0.0664  0.3245
  295Sol     OW 4107   2.827   2.092   8.349 -0.1954 -0.3932 -0.5480
  295Sol     HW 4108   2.820   2.167   8.407  1.0760  0.5401 -1.5747
  295Sol     HW 4109   2.753   2.036   8.373 -0.3956  0.5532  1.1108
  295Sol     MW 4110   2.820   2.093   8.356 -0.2640 -0.0917  0.3664
  296Sol     OW 4111   0.197   2.274   4.308  0.2772 -0.2649 -0.1469
  296Sol     HW 4112   0.145   2.305   4.233  1.6514  2.1147 -0.1626
  296Sol     HW 4113   0.190   2.179   4.304 -2.2889 -0.0851 -1.4281
  296Sol     MW 4114   0.191   2.268   4.301  0.1966 -0.0476 -0.1754
  297Sol     OW 4115   1.511   2.065   3.436  0.4694  0.8241 -0.4784
  297Sol     HW 4116   1.565   2.096   3.509  2.3398 -1.9831 -0.6017
  297Sol     HW 4117   1.436   2.024   3.478 -0.0438  1.9804 -0.2366
  297Sol     MW 4118   1.509   2.065   3.447 -0.4418 -0.0910 -0.0691
  298Sol     OW 4119   2.289   1.444   9.642 -0.6093  0.0881  0.0218
  298Sol     HW 4120   2.336   1.527   9.659 -2.3688  0.8247  1.4435
  298Sol     HW 4121   2.311   1.423   9.552 -0.1848  2.1739 -0.4050
  298Sol     MW 4122   2.295   1.450   9.636 -0.5186 -0.1892  0.0687
  299Sol     OW 4123   1.860   2.135   4.278 -0.5043  0.1708 -0.1287
  299Sol     HW 4124   1.904   2.053   4.299 -0.1689  0.4971  0.4761
  299Sol     HW 4125   1.820   2.162   4.361 -0.9601  0.4049 -0.4245
  299Sol     MW 4126   1.861   2.130   4.287  0.2311  0.0020 -0.2586
  300Sol     OW 4127   2.711   2.233   6.022 -0.0380 -0.3129  0.4779
  300Sol     HW 4128   2.630   2.190   5.994  1.4420 -3.3249  0.6346
  300Sol     HW 4129   2.729   2.297   5.954 -1.7843 -0.5770 -0.2724
  300Sol     MW 4130   2.705   2.235   6.014 -0.1982  0.6366  0.1054
  301Sol     OW 4131   2.659   0.744   3.114  0.2996 -0.7483 -0.6101
  301Sol     HW 4132   2.618   0.686   3.050  0.1929  0.5618 -1.7748
  301Sol     HW 4133   2.745   0.704   3.130 -0.0078 -1.5545 -0.9203
  301Sol     MW 4134   2.663   0.735   3.110 -0.5222 -0.1387  0.0058
  302Sol     OW 4135   1.493   3.164   5.464 -0.1744  0.2570  0.3225
  302Sol     HW 4136   1.547   3.171   5.385  0.1091  2.5357  0.6844
  302Sol     HW 4137   1.458   3.252   5.477 -1.8062 -0.5510  1.6388
  302Sol     MW 4138   1.494   3.173   5.458  0.0590 -0.3308  0.1472
  303Sol     OW 4139   1.501   1.571   6.274  0.0896  0.1412  0.3153
  303Sol     HW 4140   1.516   1.477   6.279 -1.9783 -0.1781  0.8036
  303Sol     HW 4141   1.586   1.607   6.248  0.6598 -1.9371 -0.8622
  303Sol     MW 4142   1.510   1.566   6.272  0.0158  0.2011  0.6019
  304Sol     OW 4143   3.312   1.134   8.814  0.0547  0.0230  0.1103
  304Sol     HW 4144   3.294   1.194   8.742  0.3287 -0.6232 -0.5030
  304Sol     HW 4145   3.238   1.073   8.814  1.1461 -1.3345 -1.0568
  304Sol     MW 4146   3.304   1.134   8.808  0.2633  0.0751  0.3057
  305Sol     OW 4147   2.877   1.806   5.431  0.1193 -0.3679 -0.3396
  305Sol     HW 4148   2.861   1.729   5.377  0.1427 -0.9826  0.5133
  305Sol     HW 4149   2.957   1.845   5.395  0.1373 -0.7754 -0.7370
  305Sol     MW 4150   2.883   1.803   5.423  0.3488 -0.0816  0.2056
  306Sol     OW 4151   0.730   0.968   8.219 -0.5558  0.2852  0.0071
  306Sol     HW 4152   0.763   1.030   8.283 -0.4027  0.1245  0.0819
  306Sol     HW 4153   0.805   0.949   8.162  0.1691 -2.0162  1.6862
  306Sol     MW 4154   0.739   0.972   8.219 -0.5438 -0.6236  0.1563
  307Sol     OW 4155   0.661   3.034   2.950 -0.0276 -0.0289 -0.3625
  307Sol     HW 4156   0.698   3.006   3.034 -1.2929 -0.0752  0.1952
  307Sol     HW 4157   0.579   3.078   2.974 -0.5158 -0.2511 -1.5993
  307Sol     MW 4158   0.657   3.036   2.960  0.2304 -0.1626  0.1432
  308Sol     OW 4159   1.643   0.616   9.238  0.7559 -0.1414  0.2466
  308Sol     HW 4160   1.644   0.669   9.317 -0.4549 -1.4742  1.1889
  308Sol     HW 4161   1.552   0.618   9.209  1.2573  0.6771 -1.3816
  308Sol     MW 4162   1.635   0.621   9.242  0.2320  0.0736 -0.1921
  309Sol     OW 4163   1.734   2.818   8.425 -0.5372  0.3497  0.2600
  309Sol     HW 4164   1.731   2.804   8.519  0.9995  1.7789  0.5521
  309Sol     HW 4165   1.774   2.738   8.390  0.9355  0.7060  1.0713
  309Sol     MW 4166   1.738   2.810   8.430 -0.1159  0.2284 -0.3818
  310Sol     OW 4167   1.945   2.617   3.000  0.1565  0.2199  0.0960
  310Sol     HW 4168   1.957   2.525   2.974 -0.7993  0.0922  0.0775
  310Sol     HW 4169   2.003   2.666   2.943 -1.1790 -0.1522 -1.6279
  310Sol     MW 4170   1.951   2.613   2.993  0.1961 -0.2739  0.3529
  311Sol     OW 4171   1.626   1.535   7.585 -0.0837  0.1084 -0.2595
  311Sol     HW 4172   1.638   1.630   7.577  1.1003 -0.1230 -1.3122
  311Sol     HW 4173   1.540   1.525   7.625  1.5183  1.7659  3.8863
  311Sol     MW 4174   1.620   1.543   7.588  0.0803  0.7815 -0.2687
  312Sol     OW 4175   2.577   0.292   8.409 -0.4116  0.1404 -0.6636
  312Sol     HW 4176   2.506   0.296   8.472  0.8330  2.9875  0.6483
  312Sol     HW 4177   2.550   0.350   8.338 -0.5026 -0.7466 -1.3644
  312Sol     MW 4178   2.569   0.298   8.408  0.1456 -0.1689 -0.0874
  313Sol     OW 4179   3.075   1.989   1.624 -0.5271  0.0980  0.0901
  313Sol     HW 4180   3.089   2.010   1.717  0.9524  1.2149 -0.3527
  313Sol     HW 4181   3.036   2.068   1.587  1.2468  0.6075 -0.7486
  313Sol     MW 4182   3.073   1.998   1.629 -0.0786  0.1570  0.8222
  314Sol     OW 4183   3.047   0.871   3.815  0.3380 -0.0589 -0.7821
  314Sol     HW 4184   2.997   0.952   3.817 -1.9649 -1.4367  0.3478
  314Sol     HW 4185   3.052   0.847   3.722 -0.7405  0.3449 -0.9526
  314Sol     MW 4186   3.043   0.876   3.807 -0.0757  0.2127  0.3455
  315Sol     OW 4187   2.014   2.686   1.924 -0.3340  0.0945 -0.0008
  315Sol     HW 4188   2.020   2.694   1.829  1.9009 -0.1408  0.1070
  315Sol     HW 4189   1.992   2.775   1.953  0.7903  0.5821 -0.6050
  315Sol     MW 4190   2.012   2.695   1.918  0.2963  0.5833  0.2474
  316Sol     OW 4191   2.814   1.651   1.419  0.4258  0.7041  0.0020
  316Sol     HW 4192   2.901   1.682   1.446 -0.0426  0.2107  2.1961
  316Sol     HW 4193   2.754   1.690   1.483 -0.7512 -0.4856 -0.3516
  316Sol     MW 4194   2.817   1.657   1.427  0.1253  0.6203 -0.4552
  317Sol     OW 4195   0.932   1.907   5.889 -0.2530  0.0771  0.2538
  317Sol     HW 4196   0.902   1.822   5.919  0.5452 -0.2267  0.2059
  317Sol     HW 4197   0.877   1.928   5.814 -0.6768 -0.2414  0.4805
  317Sol     MW 4198   0.925   1.902   5.885  0.1142  0.3295  0.1996
  318Sol     OW 4199   1.328   0.064   3.971 -0.3559  0.1596  0.1471
  318Sol     HW 4200   1.281   0.011   3.907 -0.4629 -0.2915  0.5933
  318Sol     HW 4201   1.260   0.110   4.019 -0.1781  2.2024 -1.5180
  318Sol     MW 4202   1.318   0.063   3.970 -0.3041 -0.2209  0.5635
  319Sol     OW 4203   2.555   1.617   3.504  0.2766  0.4094  0.3591
  319Sol     HW 4204   2.617   1.689   3.517  0.0914  0.7353 -0.5417
  319Sol     HW 4205   2.505   1.613   3.586  0.5275  1.0760  0.5465
  319Sol     MW 4206   2.556   1.623   3.512  0.4364  0.2420 -0.1189
  320Sol     OW 4207   3.085   2.751   1.976 -0.0907 -0.1079 -0.3945
  320Sol     HW 4208   3.025   2.775   2.046  2.4860  0.8082  1.6031
  320Sol     HW 4209   3.117   2.835   1.943  1.9790 -0.5949  0.3058
  320Sol     MW 4210   3.083   2.761   1.979  0.2158  0.5742 -0.0066
  321Sol     OW 4211   0.646   3.007   6.115 -0.3967  0.2946  0.4075
  321Sol     HW 4212   0.717   2.943   6.119 -0.6219  0.0450  0.4238
  321Sol     HW 4213   0.652   3.056   6.196  0.6592  1.2340 -0.2191
  321Sol     MW 4214   0.653   3.005   6.122  0.0692  0.3083 -0.0438
  322Sol     OW 4215   2.223   2.347   8.763 -0.8161  0.1006  0.1147
  322Sol     HW 4216   2.136   2.356   8.803 -0.3069  0.5812  1.1185
  322Sol     HW 4217   2.236   2.429   8.716 -1.1661 -0.2287 -0.5720
  322Sol     MW 4218   2.216   2.355   8.762  0.5876 -0.4320 -0.3835
  323Sol     OW 4219   0.497   1.188   3.979  0.8258  0.2260 -0.1310
  323Sol     HW 4220   0.506   1.280   3.956  2.3050  0.5812  1.8171
  323Sol     HW 4221   0.408   1.181   4.014 -0.0123  0.4731 -2.1169
  323Sol     MW 4222   0.490   1.195   3.980 -0.0163  0.1615  0.7088
  324Sol     OW 4223   1.729   3.288   6.057  0.7217  0.5838  0.2000
  324Sol     HW 4224   1.634   3.272   6.052  0.9453 -0.4238 -1.0782
  324Sol     HW 4225   1.752   3.319   5.970  1.7212 -0.0503  0.2348
  324Sol     MW 4226   1.722   3.289   6.049  0.3060  0.3271 -0.6450
  325Sol     OW 4227   2.761   3.012   7.623 -0.4670  0.5267 -0.1981
  325Sol     HW 4228   2.669   3.032   7.609 -0.5591  0.4346  0.2834
  325Sol     HW 4229   2.803   3.036   7.540 -1.0452 -0.2445 -0.7126
  325Sol     MW 4230   2.757   3.016   7.614  0.5474 -0.3153  0.2661
  326Sol     OW 4231   2.499   2.843   1.566 -0.4223 -0.1171 -0.3745
  326Sol     HW 4232   2.435   2.911   1.546  0.0450  0.0343 -1.3946
  326Sol     HW 4233   2.485   2.824   1.659 -0.7398  1.1764 -0.1375
  326Sol     MW 4234   2.492   2.848   1.572 -0.1025 -0.1506  0.0692
  327Sol     OW 4235   1.182   1.187   7.197  0.0248  0.6125  0.2564
  327Sol     HW 4236   1.180   1.272   7.241 -1.4892  1.2289 -0.9621
  327Sol     HW 4237   1.135   1.201   7.115 -0.5681 -1.4925  0.2000
  327Sol     MW 4238   1.178   1.196   7.194 -0.6449  0.4204 -0.0861
  328Sol     OW 4239   3.253   3.193   2.279  0.0063  0.2198  0.4373
  328Sol     HW 4240   3.329   3.211   2.334  0.1781  0.2846  0.1800
  328Sol     HW 4241   3.274   3.110   2.237  0.1983  0.5326 -0.0902
  328Sol     MW 4242   3.262   3.187   2.280  0.1261  0.3579 -0.0311
  329Sol     OW 4243   2.474   2.496   9.307 -0.3237  0.3051  0.0987
  329Sol     HW 4244   2.559   2.482   9.350 -0.3952  0.1399  0.1881
  329Sol     HW 4245   2.461   2.590   9.310 -0.0697  0.3470 -0.0520
  329Sol     MW 4246   2.481   2.503   9.311 -0.1376 -0.2475  0.2250
  330Sol     OW 4247   3.233   0.727   4.228  0.0345  0.1821 -0.4805
  330Sol     HW 4248   3.225   0.638   4.193  0.0427  0.3090 -0.8128
  330Sol     HW 4249   3.245   0.782   4.150  0.3248  0.4387 -0.2568
  330Sol     MW 4250   3.233   0.724   4.218 -0.1971  0.2212 -0.0713
  331Sol     OW 4251   3.237   2.592   1.515  0.1874  0.0727  0.0005
  331Sol     HW 4252   3.221   2.681   1.485  1.4356  0.8698  1.6633
  331Sol     HW 4253   3.189   2.585   1.597  1.5545 -0.2154  0.7789
  331Sol     MW 4254   3.231   2.599   1.519  0.0506  0.1712  0.5294
  332Sol     OW 4255   1.274   1.073   8.800  0.0352  0.3552  0.3198
  332Sol     HW 4256   1.345   1.011   8.786 -1.3358 -2.2381  3.8992
  332Sol     HW 4257   1.204   1.043   8.742 -0.6778 -1.6312  2.1572
  332Sol     MW 4258   1.274   1.065   8.794 -0.0870  0.0230  0.1650
  333Sol     OW 4259   1.726   3.007   1.960 -0.0895  0.0484 -0.3186
  333Sol     HW 4260   1.686   2.952   1.893 -0.2357  0.8044 -0.8670
  333Sol     HW 4261   1.695   2.971   2.043 -0.6811 -0.3103 -0.6896
  333Sol     MW 4262   1.719   2.999   1.961  0.0943  0.0405 -0.1978
  334Sol     OW 4263   1.960   3.347   7.099  0.0243  0.4122 -0.1025
  334Sol     HW 4264   2.038   3.402   7.088  0.6869 -0.5125 -0.0142
  334Sol     HW 4265   1.981   3.290   7.172 -0.6396 -0.0193 -0.2480
  334Sol     MW 4266   1.969   3.347   7.104  0.0172 -0.0568  0.3203
  335Sol     OW 4267   0.156   1.198   7.925  0.1507  1.1977 -0.2179
  335Sol     HW 4268   0.076   1.248   7.912 -0.0106  0.7991 -0.8195
  335Sol     HW 4269   0.182   1.173   7.836 -0.4299 -0.7845  0.1450
  335Sol     MW 4270   0.151   1.200   7.916 -0.3154 -0.1627 -0.3008
  336Sol     OW 4271   0.686   1.513   4.944 -0.0797 -0.2020  0.5172
  336Sol     HW 4272   0.716   1.576   4.879 -0.2535  0.2501  0.8729
  336Sol     HW 4273   0.741   1.436   4.930  1.0749  0.5217  0.9833
  336Sol     MW 4274   0.694   1.512   4.937  0.3789 -0.6597  0.0722
  337Sol     OW 4275   0.778   2.921   6.600 -0.3137 -0.0543 -0.1677
  337Sol     HW 4276   0.824   2.858   6.546 -0.0767  1.1368 -1.3817
  337Sol     HW 4277   0.812   2.906   6.689  2.2353  0.6221 -0.9829
  337Sol     MW 4278   0.785   2.914   6.603 -0.0852  0.4132 -0.0275
  338Sol     OW 4279   1.025   1.561   9.308 -0.2661  0.1573  0.0968
  338Sol     HW 4280   1.067   1.478   9.331  0.8899  0.8599  0.5667
  338Sol     HW 4281   0.950   1.535   9.254  0.1001 -1.1880  0.2002
  338Sol     MW 4282   1.022   1.551   9.305 -0.4373  0.4468  0.0867
  339Sol     OW 4283   1.916   1.305   4.725 -0.2587 -0.2566 -0.4937
  339Sol     HW 4284   1.857   1.230   4.726 -0.6574  0.0490  2.3429
  339Sol     HW 4285   1.993   1.275   4.774 -1.1526  1.6934  2.2151
  339Sol     MW 4286   1.918   1.296   4.729  0.7610 -0.4722  0.3915
  340Sol     OW 4287   1.476   0.982   5.506  0.1437 -0.2262 -0.6898
  340Sol     HW 4288   1.484   1.075   5.485 -0.5035 -0.2654 -1.1076
  340Sol     HW 4289   1.387   0.958   5.481  0.3993 -1.0310 -0.8742
  340Sol     MW 4290   1.469   0.988   5.502  0.1377 -0.1442  0.5910
  341Sol     OW 4291   3.268   0.963   8.052 -0.1875 -0.0122  0.1249
  341Sol     HW 4292   3.286   1.038   7.995 -0.6740 -0.3177 -0.4456
  341Sol     HW 4293   3.215   0.904   7.997  0.8927 -1.1516  0.2659
  341Sol     MW 4294   3.265   0.964   8.042 -0.1766  0.0481 -0.1168
  342Sol     OW 4295   0.084   1.955   1.794  0.4723 -0.1276  0.3018
  342Sol     HW 4296   0.101   1.950   1.700  0.0304  0.7045  0.1794
  342Sol     HW 4297   0.157   2.007   1.829 -0.3669  1.1625  0.1520
  342Sol     MW 4298   0.092   1.959   1.789  0.1358 -0.1406 -0.1948
  343Sol     OW 4299   1.966   1.174   4.281 -0.5448 -0.7005 -0.0751
  343Sol     HW 4300   1.881   1.160   4.322 -0.8921 -1.2201 -0.9346
  343Sol     HW 4301   1.946   1.221   4.200 -0.3252 -3.0420 -1.5504
  343Sol     MW 4302   1.957   1.177   4.277  0.5699  0.5524 -0.3991
  344Sol     OW 4303   2.849   0.191   2.617 -0.6376 -0.7137  0.2221
  344Sol     HW 4304   2.795   0.256   2.573  2.1575  2.0267  0.6379
  344Sol     HW 4305   2.824   0.197   2.709 -0.6187 -0.4720  0.2110
  344Sol     MW 4306   2.842   0.198   2.621 -0.5245 -0.2606 -0.2693
  345Sol     OW 4307   2.067   3.009   9.364 -0.5702  0.4310 -0.4185
  345Sol     HW 4308   2.035   2.949   9.296 -1.3311  1.2002 -0.7546
  345Sol     HW 4309   2.162   2.999   9.363 -0.7284 -1.1049 -0.1480
  345Sol     MW 4310   2.073   3.003   9.358  0.2645 -0.0680  0.1802
  346Sol     OW 4311   2.531   2.069   2.769  0.0785 -0.5096 -0.4713
  346Sol     HW 4312   2.569   1.984   2.790  0.7562 -0.2711 -0.7156
  346Sol     HW 4313   2.436   2.054   2.770  0.1730 -1.0589  0.3371
  346Sol     MW 4314   2.526   2.060   2.771  0.1862  0.2550  0.0062
  347Sol     OW 4315   0.958   1.002   8.051 -0.6956 -0.1115  0.2676
  347Sol     HW 4316   0.996   0.970   7.969 -1.0842 -1.9639  0.7852
  347Sol     HW 4317   0.975   1.096   8.050  1.0199 -0.4064 -1.0178
  347Sol     MW 4318   0.963   1.007   8.044  0.3855 -0.1495 -0.2558
  348Sol     OW 4319   0.614   1.063   4.181 -0.4496  0.2444 -0.0073
  348Sol     HW 4320   0.543   1.082   4.242 -0.4201  0.1584  0.0543
  348Sol     HW 4321   0.609   1.133   4.116 -0.2462  0.5514  0.3049
  348Sol     MW 4322   0.607   1.071   4.181 -0.6048  0.2380 -0.3504
  349Sol     OW 4323   0.786   0.118   6.293  0.3250 -0.3597  0.9974
  349Sol     HW 4324   0.881   0.112   6.304  0.4409 -1.3333 -0.3953
  349Sol     HW 4325   0.773   0.196   6.239  0.6257 -2.1522 -1.7879
  349Sol     MW 4326   0.794   0.124   6.289 -0.1759 -0.0785 -0.0981
  350Sol     OW 4327   0.718   0.892   9.462  0.0819  0.0557 -0.1919
  350Sol     HW 4328   0.738   0.806   9.500  0.8872 -0.7525 -2.4040
  350Sol     HW 4329   0.644   0.876   9.403 -0.2785  1.0442 -0.0227
  350Sol     MW 4330   0.713   0.883   9.461 -0.2787  0.0495 -0.2075
  351Sol     OW 4331   2.631   3.143   7.292  0.7726  0.4980  0.3635
  351Sol     HW 4332   2.613   3.169   7.202 -0.9703  0.8441  0.7835
  351Sol     HW 4333   2.669   3.222   7.332  2.0816  0.1601 -0.2185
  351Sol     MW 4334   2.633   3.153   7.288  0.3473 -0.6054 -0.3360
  352Sol     OW 4335   1.051   1.455   8.429 -0.1375  0.0602 -0.2597
  352Sol     HW 4336   1.094   1.532   8.392  0.0414 -0.5197 -1.2878
  352Sol     HW 4337   1.122   1.402   8.463 -0.1567 -0.2004 -0.6189
  352Sol     MW 4338   1.061   1.457   8.428  0.1498 -0.0980 -0.5965
  353Sol     OW 4339   2.671   1.462   5.419 -0.1350  0.0095  0.1156
  353Sol     HW 4340   2.657   1.496   5.330 -0.9865  1.1854  0.6700
  353Sol     HW 4341   2.676   1.367   5.408  2.9187  0.2901 -1.5691
  353Sol     MW 4342   2.670   1.457   5.410  0.1077  0.0315  0.1252
  354Sol     OW 4343   2.685   0.422   5.915 -0.4231  0.2259 -0.1367
  354Sol     HW 4344   2.752   0.476   5.957 -1.6829  1.4991  0.2779
  354Sol     HW 4345   2.618   0.484   5.886 -1.3807 -1.0008 -0.6353
  354Sol     MW 4346   2.685   0.432   5.917  0.3235  0.0943  0.1395
  355Sol     OW 4347   2.853   1.387   3.611 -0.1372 -1.0087  0.1040
  355Sol     HW 4348   2.929   1.445   3.616 -1.2877  0.4771  0.7847
  355Sol     HW 4349   2.837   1.376   3.517  1.0020 -1.4718 -0.0466
  355Sol     MW 4350   2.859   1.391   3.603  0.7032  0.0111 -0.4502
  356Sol     OW 4351   1.727   1.968   7.887  0.6614  0.4593  0.1639
  356Sol     HW 4352   1.721   2.043   7.828 -1.3231  0.0478 -0.2057
  356Sol     HW 4353   1.778   1.903   7.837  1.2710  1.0759 -0.0282
  356Sol     MW 4354   1.731   1.969   7.877 -0.1374 -0.3732  0.0776
  357Sol     OW 4355   2.532   3.231   8.818 -0.4978  0.1762  0.6295
  357Sol     HW 4356   2.570   3.258   8.901 -2.0332  1.9874  0.7792
  357Sol     HW 4357   2.453   3.183   8.841 -0.7295  0.3586  0.2345
  357Sol     MW 4358   2.528   3.229   8.827  0.0586  0.6079  0.1928
  358Sol     OW 4359   1.301   1.759   4.972 -0.2247 -0.1348 -0.5823
  358Sol     HW 4360   1.369   1.766   5.039 -0.6202  2.0480 -0.3593
  358Sol     HW 4361   1.343   1.713   4.899  1.1870  0.3184 -0.0657
  358Sol     MW 4362   1.311   1.756   4.971  0.0457 -0.1020 -0.3722
  359Sol     OW 4363   1.232   3.047   2.269  0.1438  0.1624 -0.1997
  359Sol     HW 4364   1.142   3.020   2.250  0.0566  0.0130  0.4250
  359Sol     HW 4365   1.234   3.140   2.247 -0.0127  0.0415 -0.7355
  359Sol     MW 4366   1.224   3.053   2.266 -0.1652 -0.3882 -0.3885
  360Sol     OW 4367   1.591   2.505   6.245  0.2199  0.4574 -0.1970
  360Sol     HW 4368   1.661   2.569   6.255  1.7932 -1.1409 -0.8286
  360Sol     HW 4369   1.567   2.511   6.153  0.1607  0.3332 -0.1885
  360Sol     MW 4370   1.595   2.512   6.238 -0.2511 -0.5329  0.0424
  361Sol     OW 4371   2.221   0.921   9.023  0.0761 -0.0043  0.4369
  361Sol     HW 4372   2.215   0.836   8.980  2.0556  0.2226 -0.3378
  361Sol     HW 4373   2.167   0.979   8.968 -1.5486 -0.7994  1.1581
  361Sol     MW 4374   2.215   0.919   9.014  0.2348  0.2644 -0.0400
  362Sol     OW 4375   1.301   0.504   1.499  0.2641 -0.4181 -0.2331
  362Sol     HW 4376   1.273   0.590   1.468  2.2950  0.8498  1.3402
  362Sol     HW 4377   1.391   0.495   1.469  0.1646 -1.8738 -0.1228
  362Sol     MW 4378   1.306   0.511   1.494  0.2899  0.0795 -0.6898
  363Sol     OW 4379   2.547   0.958   1.518 -0.4094  0.2362 -0.3090
  363Sol     HW 4380   2.604   0.936   1.591 -2.4769  1.4827  1.7456
  363Sol     HW 4381   2.558   0.886   1.456  2.7844  0.0899  0.3521
  363Sol     MW 4382   2.553   0.950   1.519 -0.2623  0.1308 -0.0284
  364Sol     OW 4383   1.682   1.784   3.776  0.8315  0.2192 -0.2356
  364Sol     HW 4384   1.751   1.719   3.763  2.0425  0.7225  3.0603
  364Sol     HW 4385   1.601   1.741   3.749  1.8824 -1.9778  0.0492
  364Sol     MW 4386   1.681   1.775   3.773  0.1077 -0.4061 -0.2802
  365Sol     OW 4387   3.255   2.878   1.470  0.2216 -0.3369  0.8256
  365Sol     HW 4388   3.240   2.920   1.555  1.0105  0.6337  0.4982
  365Sol     HW 4389   3.225   2.942   1.406  0.0655 -0.8736  0.3605
  365Sol     MW 4390   3.251   2.887   1.472 -0.3633 -0.3129 -0.0489
  366Sol     OW 4391   1.523   2.021   4.104 -0.8248 -0.3769 -0.1148
  366Sol     HW 4392   1.587   2.021   4.033 -1.0550  0.3839 -0.3283
  366Sol     HW 4393   1.551   2.091   4.162 -2.1929  0.8397 -0.8876
  366Sol     MW 4394   1.531   2.027   4.103 -0.2938  0.2002 -0.4265
  367Sol     OW 4395   0.922   2.717   1.439 -0.6344 -0.3183  0.1981
  367Sol     HW 4396   0.913   2.776   1.513 -2.3530  0.2494 -0.4545
  367Sol     HW 4397   0.931   2.774   1.363  0.7011 -0.9029 -0.1139
  367Sol     MW 4398   0.922   2.727   1.439  0.4173 -0.0569  0.5921
  368Sol     OW 4399   0.494   1.454   1.718  0.1980  0.2167  0.0616
  368Sol     HW 4400   0.446   1.447   1.800 -2.1687  2.2804 -1.1051
  368Sol     HW 4401   0.452   1.525   1.670  1.4444 -0.9920 -3.0140
  368Sol     MW 4402   0.486   1.460   1.721 -0.0771  0.3407  0.0461
  369Sol     OW 4403   2.821   2.778   7.748 -0.1502 -0.4142 -0.4336
  369Sol     HW 4404   2.916   2.777   7.756 -0.0584  1.0615 -1.1307
  369Sol     HW 4405   2.801   2.859   7.701 -1.7703 -0.5708 -0.0767
  369Sol     MW 4406   2.827   2.785   7.745 -0.0838 -0.2255 -0.3782
  370Sol     OW 4407   2.136   0.758   6.366  0.2112 -0.5743 -0.4946
  370Sol     HW 4408   2.124   0.689   6.430 -0.1122 -1.1522 -1.1667
  370Sol     HW 4409   2.119   0.715   6.282  1.4449 -0.0382 -1.0287
  370Sol     MW 4410   2.134   0.748   6.364 -0.4808  0.5437  0.4430
  371Sol     OW 4411   0.589   0.732   8.296  0.2677 -0.1494 -0.4774
  371Sol     HW 4412   0.500   0.765   8.308 -0.2685 -1.2552 -1.4161
  371Sol     HW 4413   0.634   0.802   8.250 -1.2364 -1.2143 -3.7072
  371Sol     MW 4414   0.585   0.742   8.293  0.1927 -0.1893 -0.1803
  372Sol     OW 4415   0.473   3.253   6.154  0.3727 -0.2929  0.2254
  372Sol     HW 4416   0.433   3.335   6.182  0.6174 -0.6282  1.6433
  372Sol     HW 4417   0.567   3.272   6.152  0.4075 -0.4547  0.3013
  372Sol     MW 4418   0.478   3.262   6.157 -0.3022  0.2279  0.1231
  373Sol     OW 4419   2.427   0.991   5.149 -0.5159 -0.2184  0.1683
  373Sol     HW 4420   2.487   0.918   5.160 -1.7295 -1.0330  1.4332
  373Sol     HW 4421   2.365   0.961   5.083 -1.3298 -0.5434  1.0747
  373Sol     MW 4422   2.427   0.982   5.144  0.1418  0.2622  0.2880
  374Sol     OW 4423   1.208   2.946   5.364  0.7860  0.4510  0.2236
  374Sol     HW 4424   1.241   2.884   5.299 -0.7380  0.5038 -0.6304
  374Sol     HW 4425   1.252   3.029   5.342  1.4609  0.1035  0.2460
  374Sol     MW 4426   1.215   2.948   5.356  0.1444  0.3821 -0.1754
  375Sol     OW 4427   2.777   1.304   2.915  0.5354  0.8009  0.1067
  375Sol     HW 4428   2.841   1.272   2.979 -0.2248  0.5936  0.7582
  375Sol     HW 4429   2.806   1.266   2.832 -0.1674 -1.3325  0.8028
  375Sol     MW 4430   2.786   1.298   2.913 -0.0335 -0.4718 -0.2384
  376Sol     OW 4431   0.059   2.071   7.703 -0.7598  0.3869 -0.3035
  376Sol     HW 4432   0.018   2.003   7.757  0.3254 -0.8815 -1.0439
  376Sol     HW 4433   0.091   2.135   7.765  0.2035 -0.9027  0.5666
  376Sol     MW 4434   0.058   2.070   7.713 -0.2843  0.2251 -0.1216
  377Sol     OW 4435   0.711   2.833   4.327 -0.8841  0.2771  0.4237
  377Sol     HW 4436   0.788   2.873   4.287 -0.8099 -0.2002  0.0901
  377Sol     HW 4437   0.746   2.782   4.400 -0.6705 -1.4847 -0.8750
  377Sol     MW 4438   0.721   2.832   4.330 -0.3225  0.1310 -0.0981
  378Sol     OW 4439   2.177   3.187   2.883  0.3432 -0.0584  0.2137
  378Sol     HW 4440   2.229   3.128   2.937  1.4288  1.1927  0.5628
  378Sol     HW 4441   2.137   3.247   2.946  0.6513  0.6662 -0.2778
  378Sol     MW 4442   2.178   3.187   2.894 -0.1602  0.3825 -0.1649
  379Sol     OW 4443   0.133   2.253   2.443 -0.0328  0.4131  0.2160
  379Sol     HW 4444   0.216   2.265   2.489 -1.4092  1.4666  2.5764
  379Sol     HW 4445   0.119   2.336   2.397  0.6465 -0.0954 -0.9063
  379Sol     MW 4446   0.139   2.262   2.443 -0.4539  0.1192  0.1047
  380Sol     OW 4447   1.911   3.369   5.471 -0.1524 -0.0175  0.4630
  380Sol     HW 4448   1.998   3.395   5.499 -0.0352  0.4927 -0.3484
  380Sol     HW 4449   1.884   3.301   5.533  1.8170 -1.9620 -0.7433
  380Sol     MW 4450   1.916   3.365   5.479  0.7464 -0.2865 -0.0946
  381Sol     OW 4451   0.227   0.371   4.717  0.4880  0.0264  0.0135
  381Sol     HW 4452   0.175   0.405   4.644 -0.9394 -1.8985  0.1144
  381Sol     HW 4453   0.218   0.276   4.711  4.1836 -0.3775 -0.0931
  381Sol     MW 4454   0.222   0.366   4.710 -0.6830  0.4351 -0.6526
  382Sol     OW 4455   1.349   3.428   9.935  0.7066 -0.3606  0.0175
  382Sol     HW 4456   1.304   3.485   9.873  0.1815 -0.7085  0.0786
  382Sol     HW 4457   1.441   3.432   9.909  0.5717 -0.0227 -0.4038
  382Sol     MW 4458   1.353   3.433   9.927  0.6873 -0.4394  0.4006
  383Sol     OW 4459   0.428   2.181   7.826  0.2505  0.8806 -0.0868
  383Sol     HW 4460   0.339   2.216   7.823 -0.0830 -0.0102 -0.8398
  383Sol     HW 4461   0.466   2.218   7.906 -0.4482  2.0810 -0.3024
  383Sol     MW 4462   0.424   2.188   7.833  0.0904 -0.0844  0.2531
  384Sol     OW 4463   2.910   1.795   1.809  0.0315  0.0459 -0.3757
  384Sol     HW 4464   2.960   1.807   1.728  0.3899  1.1547  0.0013
  384Sol     HW 4465   2.975   1.764   1.873  0.1078  0.8696 -0.0538
  384Sol     MW 4466   2.920   1.793   1.807 -0.2425 -0.0238  0.1149
  385Sol     OW 4467   1.762   2.315   9.776 -0.0333  1.0663 -0.0866
  385Sol     HW 4468   1.683   2.267   9.749 -0.1029  0.5842  0.9589
  385Sol     HW 4469   1.799   2.347   9.694 -0.9665  0.7515 -0.6468
  385Sol     MW 4470   1.758   2.314   9.766  0.4449  0.0856 -0.8552
  386Sol     OW 4471   1.757   1.405   6.098 -0.0159  0.2852  0.0656
  386Sol     HW 4472   1.711   1.364   6.171  0.9313 -0.9834 -0.0320
  386Sol     HW 4473   1.754   1.498   6.117 -0.9319  0.0639  1.0470
  386Sol     MW 4474   1.753   1.409   6.106  0.9242  0.0896 -0.5971
  387Sol     OW 4475   1.871   0.028   6.608  0.0187 -0.0733 -0.7409
  387Sol     HW 4476   1.844   0.049   6.697  0.8723  1.9806 -0.9470
  387Sol     HW 4477   1.817  -0.048   6.584 -0.4885 -0.4170  1.3637
  387Sol     MW 4478   1.864   0.023   6.614  0.0906  0.5764  0.3640
  388Sol     OW 4479   2.658   0.333   2.187  0.6580  0.4793 -0.4510
  388Sol     HW 4480   2.589   0.277   2.151  1.2379 -1.5389  1.4740
  388Sol     HW 4481   2.618   0.373   2.264  0.5438  2.0482 -1.3032
  388Sol     MW 4482   2.648   0.331   2.190  0.0367 -0.2135 -0.7228
  389Sol     OW 4483   0.567   2.481   6.024 -0.2458  0.2507  0.4656
  389Sol     HW 4484   0.533   2.555   5.974 -0.3939  0.0657  0.2943
  389Sol     HW 4485   0.529   2.492   6.112 -1.9245 -0.7510 -0.1124
  389Sol     MW 4486   0.560   2.489   6.028 -0.1036 -0.3749 -0.1824
  390Sol     OW 4487   1.924   0.746   9.890  0.1648  0.3036 -0.1525
  390Sol     HW 4488   2.017   0.758   9.873  0.2495  1.2948  1.0288
  390Sol     HW 4489   1.884   0.742   9.802  1.1701  0.9217 -0.6401
  390Sol     MW 4490   1.929   0.746   9.880  0.4790 -0.0674  0.0990
  391Sol     OW 4491   3.017   1.432   9.913  0.2459  0.5240  0.4734
  391Sol     HW 4492   2.982   1.516   9.941  1.4825  0.2134  3.0574
  391Sol     HW 4493   2.950   1.368   9.939 -0.8363  0.6874 -1.7650
  391Sol     MW 4494   3.008   1.434   9.918 -0.1610 -0.2739 -0.2089
  392Sol     OW 4495   2.737   3.214   5.792  0.0822 -0.5394  0.1960
  392Sol     HW 4496   2.748   3.207   5.887 -0.8570 -1.3722  0.2440
  392Sol     HW 4497   2.735   3.124   5.761  2.3342 -0.2727 -0.8684
  392Sol     MW 4498   2.738   3.206   5.798 -0.0232  0.6874  0.0309
  393Sol     OW 4499   3.025   1.928   8.292  0.2234  0.0156  0.1246
  393Sol     HW 4500   2.945   1.973   8.320  0.6588  0.0820  1.2649
  393Sol     HW 4501   3.019   1.926   8.196 -1.0593  0.1737  0.1951
  393Sol     MW 4502   3.017   1.932   8.286  0.6210 -0.1420 -0.3360
  394Sol     OW 4503   1.194   3.148   2.557 -0.0171 -0.2110  0.1388
  394Sol     HW 4504   1.198   3.094   2.478  0.4852  0.2704 -0.1658
  394Sol     HW 4505   1.127   3.213   2.538 -0.7870 -0.8542  0.5945
  394Sol     MW 4506   1.188   3.149   2.548  0.1402  0.2775 -0.2755
  395Sol     OW 4507   2.220   1.949   9.293  0.3296  0.2254  0.2237
  395Sol     HW 4508   2.141   1.921   9.337 -0.1500 -1.6333 -1.7024
  395Sol     HW 4509   2.229   2.041   9.314 -2.9431  0.7363 -0.3741
  395Sol     MW 4510   2.214   1.954   9.299 -0.5413 -0.0457 -0.1406
  396Sol     OW 4511   0.975   1.921   7.042  0.4146  0.1986  0.5946
  396Sol     HW 4512   0.888   1.920   7.005  0.4018 -0.2887  0.6280
  396Sol     HW 4513   1.032   1.949   6.971  0.2733  0.1942  0.4812
  396Sol     MW 4514   0.973   1.923   7.033  0.6889 -0.5848 -0.0305
  397Sol     OW 4515   1.206   0.260   1.374  0.5323  0.1373 -0.6194
  397Sol     HW 4516   1.242   0.337   1.417  1.3136 -0.3201 -0.4410
  397Sol     HW 4517   1.249   0.186   1.417  0.5527 -0.3638 -1.4819
  397Sol     MW 4518   1.213   0.260   1.382  0.3301  0.5940 -0.5545
  398Sol     OW 4519   3.136   3.324   4.744  0.2771 -0.2389 -0.0077
  398Sol     HW 4520   3.143   3.414   4.775  1.3533  0.4308 -2.1469
  398Sol     HW 4521   3.210   3.313   4.685  0.1225 -2.5243  0.1894
  398Sol     MW 4522   3.143   3.331   4.742 -0.1800  0.4107  0.1837
  399Sol     OW 4523   0.313   1.478   2.309  0.0068  0.2383  0.9004
  399Sol     HW 4524   0.351   1.430   2.383 -0.1306 -1.1075  0.1202
  399Sol     HW 4525   0.372   1.552   2.295  2.2962 -1.7170 -0.1872
  399Sol     MW 4526   0.322   1.480   2.314  0.3648 -0.8617  0.1514
  400Sol     OW 4527   1.719   3.403   4.095  0.1412 -0.1794  0.0946
  400Sol     HW 4528   1.669   3.324   4.118 -0.8820 -0.2753 -2.3039
  400Sol     HW 4529   1.670   3.475   4.134  0.7533 -0.6487  1.7868
  400Sol     MW 4530   1.710   3.402   4.101  0.5725 -0.1381  0.7011
  401Sol     OW 4531   1.970   1.155   9.486 -0.6068  0.4229 -0.1037
  401Sol     HW 4532   2.007   1.072   9.515 -0.8816  0.4248  0.2594
  401Sol     HW 4533   1.984   1.215   9.559 -2.7248  0.0101  0.6895
  401Sol     MW 4534   1.974   1.153   9.495 -0.3342 -0.3535 -0.0427
  402Sol     OW 4535   3.000   1.120   1.738  0.0846 -0.2066  0.5028
  402Sol     HW 4536   2.966   1.171   1.812  1.1223  1.3054 -0.0416
  402Sol     HW 4537   2.965   1.162   1.660 -0.9420 -1.7558  0.1064
  402Sol     MW 4538   2.994   1.128   1.738  0.3071  1.1288  0.2523
  403Sol     OW 4539   1.152   2.308   1.694 -0.1095 -0.1156 -0.2604
  403Sol     HW 4540   1.130   2.220   1.662 -2.0493  0.8076 -1.5142
  403Sol     HW 4541   1.118   2.367   1.627  2.1425  1.5722  0.0530
  403Sol     MW 4542   1.147   2.305   1.685 -0.2839 -0.2584  0.4197
  404Sol     OW 4543   1.208   2.685   9.398  0.1414  0.6327 -0.0693
  404Sol     HW 4544   1.157   2.711   9.475  1.8888  0.6882  1.1230
  404Sol     HW 4545   1.204   2.589   9.399  0.8399  0.5992  0.6020
  404Sol     MW 4546   1.203   2.679   9.405  0.5360 -0.3687  0.5439
  405Sol     OW 4547   1.207   0.945   9.654  0.1145 -0.2262 -0.6367
  405Sol     HW 4548   1.116   0.926   9.677 -0.4376  1.3122 -1.4687
  405Sol     HW 4549   1.214   1.040   9.662  1.7946 -0.3837 -0.1064
  405Sol     MW 4550   1.199   0.952   9.657  0.3930  0.7730  0.1478
  406Sol     OW 4551   1.209   2.283   8.797 -0.2224  0.1643  0.1596
  406Sol     HW 4552   1.173   2.298   8.710 -0.6709 -1.9581 -0.0409
  406Sol     HW 4553   1.135   2.298   8.856 -0.0596  1.0384  0.1580
  406Sol     MW 4554   1.199   2.286   8.794 -0.3031  1.4382 -0.0058
  407Sol     OW 4555   1.704   1.023   5.110 -0.2640  0.1613  0.1545
  407Sol     HW 4556   1.774   1.087   5.096  0.2018 -0.6986 -1.5302
  407Sol     HW 4557   1.624   1.071   5.087 -0.1148  0.7060  0.7280
  407Sol     MW 4558   1.703   1.033   5.107  0.3546 -0.2687 -0.8830
  408Sol     OW 4559   2.407   0.520   5.873 -0.1209 -0.3177  0.0469
  408Sol     HW 4560   2.385   0.446   5.817  1.5069 -0.8205  0.0662
  408Sol     HW 4561   2.380   0.493   5.960  0.7260 -1.0103  0.0995
  408Sol     MW 4562   2.402   0.511   5.876  0.0609  0.9433  0.8431
  409Sol     OW 4563   0.958   0.664   6.661  0.0762 -0.0617  0.3094
  409Sol     HW 4564   1.045   0.685   6.696 -0.3633  1.2326  0.6392
  409Sol     HW 4565   0.926   0.595   6.720  0.7307 -0.3045  0.3942
  409Sol     MW 4566   0.963   0.659   6.670  0.5314  1.0158 -0.6587
  410Sol     OW 4567   1.851   2.360   4.061 -0.2285 -0.3222 -0.4492
  410Sol     HW 4568   1.850   2.275   4.106  2.1159 -0.8560 -1.3419
  410Sol     HW 4569   1.869   2.423   4.131 -0.2137 -0.7542 -0.0570
  410Sol     MW 4570   1.852   2.358   4.071  0.2968  0.1990 -0.1893
  411Sol     OW 4571   0.389   1.226   7.001 -0.0853 -0.2453  0.5123
  411Sol     HW 4572   0.470   1.217   7.052  1.3126 -0.4019 -1.6623
  411Sol     HW 4573   0.382   1.143   6.954 -1.2763 -0.0574  0.3623
  411Sol     MW 4574   0.396   1.218   7.001  0.5274 -0.7836 -0.1014
  412Sol     OW 4575   1.400   2.845   7.738  0.5929  0.2351  0.1645
  412Sol     HW 4576   1.359   2.880   7.818 -1.0701  0.9045 -0.9591
  412Sol     HW 4577   1.327   2.815   7.684  1.5500  1.4951 -1.9015
  412Sol     MW 4578   1.390   2.846   7.741 -0.3317  0.4415  0.2551
  413Sol     OW 4579   1.606   1.514   3.340  0.5656 -0.6922  0.0813
  413Sol     HW 4580   1.682   1.456   3.352  0.3382 -0.7059  1.6305
  413Sol     HW 4581   1.629   1.593   3.390 -0.9544 -1.2003  1.6328
  413Sol     MW 4582   1.615   1.516   3.346  0.4471  0.1008 -0.4736
  414Sol     OW 4583   0.027   1.299   2.482  0.4301  0.0896  0.2926
  414Sol     HW 4584   0.059   1.381   2.444 -0.1403  0.3697  0.4177
  414Sol     HW 4585   0.010   1.321   2.574  0.9922 -0.3641  0.5062
  414Sol     MW 4586   0.029   1.308   2.487  0.0499 -0.2556  0.1945
  415Sol     OW 4587   3.117   1.891   4.302 -0.3325  0.6998 -0.5543
  415Sol     HW 4588   3.165   1.927   4.376  0.1619 -0.5975 -0.2368
  415Sol     HW 4589   3.032   1.935   4.305  0.1417  1.5890  0.0097
  415Sol     MW 4590   3.113   1.898   4.309 -0.1094  0.9767  0.4863
  416Sol     OW 4591   1.972   2.315   3.018  0.3428  0.1551 -0.5883
  416Sol     HW 4592   1.881   2.288   3.026 -0.2269  2.3914  0.8896
  416Sol     HW 4593   2.022   2.233   3.024 -1.5459 -1.1199 -1.6587
  416Sol     MW 4594   1.969   2.305   3.019  0.3162 -0.4678 -0.3916
  417Sol     OW 4595   2.659   1.813   9.721 -0.3125  0.3555  0.1838
  417Sol     HW 4596   2.682   1.847   9.634  0.1284  1.1988  0.6244
  417Sol     HW 4597   2.594   1.745   9.703  2.1881 -1.7965 -1.0507
  417Sol     MW 4598   2.655   1.810   9.711  0.6115 -0.2539 -0.4636
  418Sol     OW 4599   1.846   3.268   1.909  0.7180  0.0896 -0.0132
  418Sol     HW 4600   1.790   3.193   1.927  0.0776  0.6054  0.1706
  418Sol     HW 4601   1.830   3.328   1.981  1.5349  0.2330  0.0592
  418Sol     MW 4602   1.840   3.267   1.917  0.2261 -0.1247 -0.4397
  419Sol     OW 4603   1.897   1.072   2.377 -0.0029  0.0855  0.3651
  419Sol     HW 4604   1.913   1.029   2.292 -0.1593 -1.4798  1.1081
  419Sol     HW 4605   1.814   1.035   2.407 -0.7499  1.8115  0.4984
  419Sol     MW 4606   1.891   1.065   2.372 -0.2636 -0.7346 -0.2344
  420Sol     OW 4607   3.243   2.946   5.118 -0.2502 -0.0571  0.2891
  420Sol     HW 4608   3.212   2.991   5.039  0.0501  0.7046  0.6108
  420Sol     HW 4609   3.264   3.016   5.179 -0.5205 -0.6563  1.0656
  420Sol     MW 4610   3.242   2.956   5.116  0.2327 -0.3428 -0.6193
  421Sol     OW 4611   2.834   2.541   6.945  0.2095  0.2668 -0.3409
  421Sol     HW 4612   2.789   2.491   7.013 -0.0773  0.3034 -0.5065
  421Sol     HW 4613   2.811   2.497   6.863 -0.1197  0.7316 -0.4962
  421Sol     MW 4614   2.828   2.532   6.944  0.0373  0.3045 -0.2314
  422Sol     OW 4615   1.070   3.443   4.536 -0.4705 -0.2572  0.5409
  422Sol     HW 4616   1.082   3.348   4.536 -1.1699 -0.3458  1.2042
  422Sol     HW 4617   1.114   3.473   4.615 -0.0702 -0.0003  0.2228
  422Sol     MW 4618   1.075   3.437   4.543 -0.7079 -0.2201  0.5580
  423Sol     OW 4619   1.352   1.810   4.019  0.1299  0.4746 -0.2743
  423Sol     HW 4620   1.278   1.832   4.075  0.2522  2.5340 -0.8384
  423Sol     HW 4621   1.421   1.872   4.045  0.9045  0.0365 -1.2404
  423Sol     MW 4622   1.352   1.818   4.026  0.7433  0.0069 -0.0976
  424Sol     OW 4623   0.836   0.891   7.723 -0.4478  0.2960 -1.0348
  424Sol     HW 4624   0.809   0.812   7.770  0.1635 -0.2727 -1.6240
  424Sol     HW 4625   0.918   0.917   7.765 -0.5072  0.4591 -1.0204
  424Sol     MW 4626   0.841   0.886   7.731  0.5036  0.6361 -0.1096
  425Sol     OW 4627   2.480   0.556   8.613 -0.0763 -0.4025 -0.5354
  425Sol     HW 4628   2.432   0.473   8.620  1.8647 -1.5347 -0.4902
  425Sol     HW 4629   2.518   0.555   8.525  0.2542  0.2948 -0.4044
  425Sol     MW 4630   2.479   0.549   8.606  0.0081 -0.2544 -0.0317
  426Sol     OW 4631   0.378   2.154   5.729  0.0457  0.7564  0.3480
  426Sol     HW 4632   0.353   2.184   5.642 -1.0235  2.8088  1.3199
  426Sol     HW 4633   0.470   2.177   5.737  0.2822  0.0949 -0.4235
  426Sol     MW 4634   0.384   2.159   5.722 -0.7244  0.9731  0.1193
  427Sol     OW 4635   0.574   3.009   2.536 -0.2841  0.1591 -0.0062
  427Sol     HW 4636   0.661   3.043   2.514  0.6621 -1.8360  0.5370
  427Sol     HW 4637   0.589   2.954   2.613 -2.0056 -0.4051 -0.0615
  427Sol     MW 4638   0.583   3.007   2.541 -0.1693  0.8744  0.1151
  428Sol     OW 4639   2.851   0.541   8.465  0.4448  0.1368  0.1108
  428Sol     HW 4640   2.836   0.608   8.532  0.7637  1.0568 -0.7345
  428Sol     HW 4641   2.893   0.470   8.512 -2.7847 -0.8232  1.6940
  428Sol     MW 4642   2.854   0.541   8.475 -0.2725 -0.4076 -0.2904
  429Sol     OW 4643   2.741   0.401   3.044  0.3497 -0.6829  0.2080
  429Sol     HW 4644   2.833   0.423   3.057  0.6593 -1.3216 -0.8552
  429Sol     HW 4645   2.707   0.386   3.133  1.3702 -0.8869  0.5682
  429Sol     MW 4646   2.746   0.402   3.053  0.0639 -0.1012  0.3388
  430Sol     OW 4647   1.049   3.163   4.571  0.2903  0.0578  0.1947
  430Sol     HW 4648   0.957   3.165   4.597  0.3422  0.3328  0.3517
  430Sol     HW 4649   1.063   3.073   4.541 -0.8003  0.7951 -2.6571
  430Sol     MW 4650   1.042   3.155   4.571  0.1141 -0.1269  0.3708
  431Sol     OW 4651   2.139   1.325   4.864 -0.1726  0.0095  0.2608
  431Sol     HW 4652   2.169   1.331   4.955  1.7455 -0.8030 -0.3053
  431Sol     HW 4653   2.176   1.402   4.821  0.8833 -0.8361 -0.3688
  431Sol     MW 4654   2.145   1.332   4.868  0.3424  0.2132 -0.3934
  432Sol     OW 4655   0.077   2.474   3.831 -0.5161  0.1939 -0.8755
  432Sol     HW 4656   0.074   2.378   3.834 -0.6927  0.2220  0.2445
  432Sol     HW 4657   0.171   2.495   3.827 -0.2389  0.0148  2.6324
  432Sol     MW 4658   0.085   2.467   3.831  0.1947 -0.4363 -0.0914
  433Sol     OW 4659   2.123   1.013   5.307  0.4213  0.1845 -0.0739
  433Sol     HW 4660   2.207   0.973   5.284  0.3097  0.3401 -0.7435
  433Sol     HW 4661   2.074   0.942   5.350  1.5939  0.5975  2.0264
  433Sol     MW 4662   2.126   1.003   5.309 -0.2092  0.5705  0.2020
  434Sol     OW 4663   0.832   1.275   3.353 -0.9043  0.4822 -0.1035
  434Sol     HW 4664   0.808   1.217   3.280 -2.2647  1.8271 -0.7486
  434Sol     HW 4665   0.836   1.362   3.313  0.6046  0.9254  0.9697
  434Sol     MW 4666   0.830   1.277   3.343  0.3201  0.1103  0.1096
  435Sol     OW 4667   3.222   0.649   5.728  0.4665 -0.8976 -0.3390
  435Sol     HW 4668   3.211   0.670   5.636 -0.7843  0.1491  0.0414
  435Sol     HW 4669   3.133   0.631   5.760  0.7986 -0.5422  0.8264
  435Sol     MW 4670   3.213   0.649   5.723  0.4033  0.6860  0.0568
  436Sol     OW 4671   0.113   1.911   3.493  0.1298  0.6876  0.5062
  436Sol     HW 4672   0.022   1.930   3.469  0.1328  0.1883  0.0920
  436Sol     HW 4673   0.112   1.820   3.521  1.1610 -0.4238 -2.9206
  436Sol     MW 4674   0.104   1.905   3.494  0.7680  0.2798  0.2246
  437Sol     OW 4675   1.301   0.798   8.527 -0.8787 -0.2170 -0.0604
  437Sol     HW 4676   1.211   0.813   8.556 -1.3202 -0.9510 -1.0339
  437Sol     HW 4677   1.322   0.875   8.475 -0.2514  0.8786  1.7652
  437Sol     MW 4678   1.295   0.806   8.525  0.0834 -0.1041 -0.0655
  438Sol     OW 4679   1.985   0.372   5.290  0.0537  0.6878  0.1278
  438Sol     HW 4680   2.081   0.378   5.286  0.0754 -0.2817 -1.2094
  438Sol     HW 4681   1.964   0.299   5.232 -1.5548  1.3908 -0.1913
  438Sol     MW 4682   1.992   0.366   5.284 -0.7565  0.6669 -0.2410
  439Sol     OW 4683   1.382   0.421   9.352 -0.0417  0.0952  0.1250
  439Sol     HW 4684   1.388   0.486   9.281 -1.3278  1.6857  1.4268
  439Sol     HW 4685   1.299   0.375   9.335  0.2546 -0.3682 -0.0840
  439Sol     MW 4686   1.375   0.423   9.344  0.0038 -0.4390  0.0419
  440Sol     OW 4687   1.454   3.437   3.025  0.3578 -0.3912  0.2626
  440Sol     HW 4688   1.422   3.438   2.935  1.5723  0.3739 -0.1738
  440Sol     HW 4689   1.375   3.438   3.079 -0.4207  3.8963 -0.7879
  440Sol     MW 4690   1.444   3.437   3.022  0.2896  0.3106 -0.0877
  441Sol     OW 4691   0.437   1.479   3.974 -0.5870  0.3285 -0.3331
  441Sol     HW 4692   0.386   1.478   4.056  0.1369 -1.0590  0.1073
  441Sol     HW 4693   0.504   1.546   3.989 -0.4131  0.0314  0.2276
  441Sol     MW 4694   0.438   1.485   3.983 -0.0871 -0.0587  0.7002
  442Sol     OW 4695   0.467   0.002   1.696  0.4442 -0.3949 -0.2024
  442Sol     HW 4696   0.489  -0.064   1.762  0.9095 -0.7489 -0.7023
  442Sol     HW 4697   0.515  -0.025   1.618  0.7064  0.5788 -0.3936
  442Sol     MW 4698   0.473  -0.006   1.695 -0.3201 -0.5768  0.0630
  443Sol     OW 4699   1.807   0.517   6.952  0.5216  0.6288  0.5277
  443Sol     HW 4700   1.730   0.571   6.932  0.5173  0.1418 -0.8214
  443Sol     HW 4701   1.781   0.429   6.925  0.9189  0.1283  1.7295
  443Sol     MW 4702   1.798   0.514   6.948  0.0455  0.0251 -0.2009
  444Sol     OW 4703   2.171   1.976   6.950  0.3529 -0.4736  0.0720
  444Sol     HW 4704   2.242   1.970   7.014  0.1963  2.3692  0.5468
  444Sol     HW 4705   2.199   1.919   6.878  2.8872  0.2038  0.4820
  444Sol     MW 4706   2.180   1.970   6.949 -0.1264  0.7193 -0.1610
  445Sol     OW 4707   1.272   1.312   8.501 -0.2151  0.3852 -0.1469
  445Sol     HW 4708   1.229   1.227   8.495  0.5318  0.1463 -2.6682
  445Sol     HW 4709   1.302   1.317   8.591 -1.1186 -1.5987  0.2999
  445Sol     MW 4710   1.270   1.305   8.508 -0.3218 -0.2574 -0.2518
  446Sol     OW 4711   2.730   1.762   5.037 -0.3310 -0.2179  0.0466
  446Sol     HW 4712   2.737   1.857   5.035  0.2832 -0.2494 -3.4135
  446Sol     HW 4713   2.669   1.741   4.966  0.5525 -2.4294 -0.1028
  446Sol     MW 4714   2.725   1.768   5.030  0.0179  0.1341  0.0136
  447Sol     OW 4715   2.488   1.186   8.310 -0.1471  0.0634  0.6635
  447Sol     HW 4716   2.566   1.161   8.361 -1.1950  0.3374  2.4457
  447Sol     HW 4717   2.523   1.238   8.237  1.5571 -1.9256  0.0189
  447Sol     MW 4718   2.498   1.189   8.308 -0.6109  0.0794 -0.5018
  448Sol     OW 4719   0.479   0.759   4.723  0.1922 -0.2801  0.5724
  448Sol     HW 4720   0.490   0.664   4.721  0.3497 -0.2357 -0.7073
  448Sol     HW 4721   0.509   0.784   4.811 -0.4891 -1.4819  1.1588
  448Sol     MW 4722   0.483   0.753   4.731 -0.5547  0.1519 -0.4056
  449Sol     OW 4723   3.207   0.419   7.704  0.0831  0.2541  0.1693
  449Sol     HW 4724   3.279   0.481   7.690 -0.4317  0.7892 -0.1073
  449Sol     HW 4725   3.247   0.333   7.688  0.4531  0.6004 -0.8222
  449Sol     MW 4726   3.217   0.417   7.701 -0.3611 -0.3133 -0.4500
  450Sol     OW 4727   1.812   0.361   4.709 -0.3929  0.1687  0.0021
  450Sol     HW 4728   1.731   0.326   4.670 -1.1883 -0.9362  2.5431
  450Sol     HW 4729   1.808   0.334   4.800  3.0688 -0.2108  0.1057
  450Sol     MW 4730   1.804   0.355   4.713  0.1002  0.5208  0.3797
  451Sol     OW 4731   0.576   0.523   2.142 -0.2176  0.3496 -0.9920
  451Sol     HW 4732   0.543   0.606   2.176  1.3002  1.0300 -1.1552
  451Sol     HW 4733   0.606   0.544   2.054  0.2181 -0.3622 -1.0138
  451Sol     MW 4734   0.576   0.533   2.137  0.0039  0.7855 -0.2599
  452Sol     OW 4735   1.669   0.373   9.756 -0.3919 -0.2179  0.4215
  452Sol     HW 4736   1.741   0.399   9.700 -1.2331  0.3281 -0.4248
  452Sol     HW 4737   1.620   0.454   9.771 -0.9009 -0.6043  0.8819
  452Sol     MW 4738   1.671   0.382   9.753 -0.1393 -0.4845 -0.0811
  453Sol     OW 4739   0.717   0.493   7.102  0.4437 -1.0221  0.1682
  453Sol     HW 4740   0.767   0.533   7.173  1.3226 -1.3006 -0.2866
  453Sol     HW 4741   0.715   0.400   7.123 -0.1781 -0.9698  0.3590
  453Sol     MW 4742   0.721   0.488   7.110  0.0261  1.3065  0.2512
  454Sol     OW 4743   2.087   1.158   2.890 -0.2426 -0.4028 -0.5082
  454Sol     HW 4744   2.138   1.125   2.816 -0.0556  0.9428 -1.0013
  454Sol     HW 4745   2.053   1.242   2.859  1.7305  1.2816  1.7675
  454Sol     MW 4746   2.088   1.162   2.880 -0.7243  0.1538 -0.3074
  455Sol     OW 4747   2.490   2.316   2.401 -0.2042  0.0106  0.3285
  455Sol     HW 4748   2.530   2.396   2.435 -0.6617  0.2674  0.2700
  455Sol     HW 4749   2.422   2.347   2.340  0.3427 -0.4326 -0.5182
  455Sol     MW 4750   2.487   2.326   2.398  0.9800  0.6336  0.1289
  456Sol     OW 4751   1.081   0.697   9.269 -0.0840  0.0592  0.1001
  456Sol     HW 4752   1.119   0.759   9.208  2.1983 -1.1747  0.2205
  456Sol     HW 4753   1.039   0.631   9.213 -2.7038  1.7463 -0.0265
  456Sol     MW 4754   1.081   0.696   9.259  0.4095 -0.4599  0.2883
  457Sol     OW 4755   2.104   1.449   2.596  0.2807 -0.2659  0.1852
  457Sol     HW 4756   2.037   1.444   2.665 -0.1504 -0.4706 -0.2429
  457Sol     HW 4757   2.058   1.489   2.522  0.1037 -2.1263 -0.7336
  457Sol     MW 4758   2.093   1.452   2.595 -0.0196  0.4963 -0.3972
  458Sol     OW 4759   0.371   1.664   1.600 -0.7492 -0.3344  0.3986
  458Sol     HW 4760   0.355   1.758   1.612  0.5306 -0.3255  2.1412
  458Sol     HW 4761   0.292   1.633   1.555  0.2584  2.1623 -3.3044
  458Sol     MW 4762   0.362   1.670   1.597  0.3300  0.1454 -0.5474
  459Sol     OW 4763   1.597   1.733   4.293 -0.0706  0.3422 -0.5268
  459Sol     HW 4764   1.647   1.800   4.247 -0.4859  0.5418 -0.6955
  459Sol     HW 4765   1.576   1.668   4.226 -0.7356  0.6666 -0.6437
  459Sol     MW 4766   1.599   1.733   4.283 -0.2054  0.0346  0.0516
  460Sol     OW 4767   3.166   1.843   9.009  0.0516  0.0825 -0.4134
  460Sol     HW 4768   3.242   1.824   9.064 -1.0985 -0.9608  0.8453
  460Sol     HW 4769   3.197   1.908   8.946  1.7609  0.2632  0.6019
  460Sol     MW 4770   3.176   1.847   9.008  0.1375 -0.0342 -0.3090
  461Sol     OW 4771   1.353   1.928   3.603 -0.2424  1.3120 -0.6986
  461Sol     HW 4772   1.262   1.898   3.612  0.5702 -1.5894 -1.4741
  461Sol     HW 4773   1.371   1.977   3.683 -1.1309 -1.9371  1.6109
  461Sol     MW 4774   1.346   1.929   3.611 -0.1491  0.0345  0.0193
  462Sol     OW 4775   1.520   2.767   4.397  0.2082 -0.4150 -0.0736
  462Sol     HW 4776   1.529   2.776   4.302  0.5353 -2.0534 -0.2106
  462Sol     HW 4777   1.590   2.823   4.433  0.4437 -0.2443 -0.7965
  462Sol     MW 4778   1.527   2.773   4.392 -0.4603  0.1627  0.0190
  463Sol     OW 4779   0.056   2.709   5.145 -0.1017 -0.1675  0.1486
  463Sol     HW 4780   0.131   2.702   5.085 -2.4692 -1.3378 -2.8269
  463Sol     HW 4781   0.018   2.794   5.126 -0.1300 -0.0094  0.9105
  463Sol     MW 4782   0.060   2.716   5.137 -0.3606  0.1070  0.0226
  464Sol     OW 4783   0.088   1.891   4.025  0.4325 -0.1828  0.0562
  464Sol     HW 4784   0.142   1.888   3.946 -1.4546 -3.1244 -1.2104
  464Sol     HW 4785   0.009   1.937   3.999  0.6474  0.6451  0.8235
  464Sol     MW 4786   0.086   1.895   4.016 -0.0555  0.9262 -0.1169
  465Sol     OW 4787   2.674   2.030   5.007  0.0732  0.0354 -0.2292
  465Sol     HW 4788   2.604   2.051   5.069 -0.0175 -2.1627  0.4288
  465Sol     HW 4789   2.631   2.034   4.921 -0.1659  1.4817 -0.0685
  465Sol     MW 4790   2.663   2.033   5.004 -0.4056  0.2284  0.5654
  466Sol     OW 4791   2.472   0.328   4.005 -0.2985  0.0565  0.5057
  466Sol     HW 4792   2.554   0.283   4.029 -0.4297 -0.4629 -0.0006
  466Sol     HW 4793   2.426   0.265   3.949 -0.2467  1.0294 -0.6612
  466Sol     MW 4794   2.475   0.318   4.002 -0.8340  0.5147 -0.1575
  467Sol     OW 4795   1.395   0.584   9.141  0.1516 -0.1968 -0.0747
  467Sol     HW 4796   1.390   0.537   9.058 -0.1660 -0.8271  0.2978
  467Sol     HW 4797   1.352   0.668   9.123  1.8098  0.4617 -1.0826
  467Sol     MW 4798   1.391   0.588   9.132  0.0848 -0.0456 -0.5480
  468Sol     OW 4799   1.112   1.199   2.767  0.4513 -0.0825  0.1234
  468Sol     HW 4800   1.111   1.275   2.708  3.5052  0.4137  0.6332
  468Sol     HW 4801   1.205   1.175   2.774 -0.3764 -3.4749  0.4992
  468Sol     MW 4802   1.121   1.204   2.762 -0.1204  0.2086 -0.1000
  469Sol     OW 4803   3.151   2.523   8.340  0.0569  0.5870  0.1783
  469Sol     HW 4804   3.082   2.460   8.363  1.3184 -1.3985 -1.3402
  469Sol     HW 4805   3.192   2.545   8.423 -1.4087  0.5988  0.9132
  469Sol     MW 4806   3.148   2.519   8.349  0.4205  0.0645  0.2456
  470Sol     OW 4807   2.786   3.125   3.495 -0.3516  0.2622 -0.1514
  470Sol     HW 4808   2.846   3.051   3.485  0.6504  1.2395 -1.5568
  470Sol     HW 4809   2.729   3.120   3.418  2.3637  3.3033 -2.4704
  470Sol     MW 4810   2.786   3.118   3.487  0.2081  0.0214 -0.0314
  471Sol     OW 4811   1.907   1.645   6.682  0.1879 -0.2425 -0.2101
  471Sol     HW 4812   1.897   1.552   6.701 -1.8735 -0.1783 -0.7871
  471Sol     HW 4813   1.878   1.654   6.591 -1.5452  1.2348  0.4528
  471Sol     MW 4814   1.903   1.637   6.675  0.3345  0.1760 -0.5582
  472Sol     OW 4815   1.739   0.169   2.471  0.4253 -0.2859 -0.1783
  472Sol     HW 4816   1.650   0.161   2.436  0.9759  0.3025 -1.7541
  472Sol     HW 4817   1.735   0.128   2.557 -1.7685  1.1762  0.4411
  472Sol     MW 4818   1.731   0.165   2.476  0.1400 -0.4219 -0.5585
  473Sol     OW 4819   0.904   2.204   5.385  0.5097 -0.0546 -0.3207
  473Sol     HW 4820   0.809   2.190   5.383  0.1125  1.9591  1.9487
  473Sol     HW 4821   0.935   2.170   5.301 -2.4326  0.5701 -1.7296
  473Sol     MW 4822   0.898   2.200   5.377 -0.4034  0.1191 -0.1392
  474Sol     OW 4823   2.987   0.132   3.895 -0.4063  0.1939 -0.4625
  474Sol     HW 4824   3.027   0.197   3.953  2.7998 -1.0866 -1.0948
  474Sol     HW 4825   2.895   0.130   3.920  0.0459  2.7820  1.6200
  474Sol     MW 4826   2.982   0.137   3.902  0.5359 -0.4488 -0.0218
  475Sol     OW 4827   1.063   1.101   5.782 -0.6653 -0.0729  0.3267
  475Sol     HW 4828   1.150   1.140   5.777 -1.8238  2.5535  0.0815
  475Sol     HW 4829   1.037   1.089   5.691 -0.7385 -0.4353  0.3959
  475Sol     MW 4830   1.069   1.103   5.773 -0.2606  0.7484  0.3035
  476Sol     OW 4831   2.252   2.478   3.676  0.3424 -0.2527  0.0009
  476Sol     HW 4832   2.165   2.486   3.635  0.2374 -1.4108 -0.0048
  476Sol     HW 4833   2.313   2.485   3.603  0.1872 -1.2947 -0.2404
  476Sol     MW 4834   2.249   2.480   3.666  0.7269 -0.1443  0.2816
  477Sol     OW 4835   2.257   2.524   7.135  0.1223  0.2740 -0.2432
  477Sol     HW 4836   2.351   2.542   7.127  0.3631 -1.3502 -1.1925
  477Sol     HW 4837   2.222   2.603   7.176  1.7114  1.4182 -0.9942
  477Sol     MW 4838   2.263   2.533   7.138  0.5346 -0.1630 -0.2771
  478Sol     OW 4839   3.079   1.938   1.334  0.0569 -0.3333  0.1715
  478Sol     HW 4840   3.093   2.031   1.317  3.4005 -0.7471  0.3389
  478Sol     HW 4841   3.064   1.933   1.429 -1.7706  0.1836 -0.0783
  478Sol     MW 4842   3.079   1.946   1.341 -0.2858 -0.5853  0.5099
  479Sol     OW 4843   3.046   1.328   4.480 -0.0099  0.0832  0.3986
  479Sol     HW 4844   3.128   1.376   4.466 -0.9312  1.2459 -1.2358
  479Sol     HW 4845   2.977   1.394   4.468 -1.2449 -1.3077 -0.2769
  479Sol     MW 4846   3.047   1.338   4.477 -0.5027 -0.3860 -0.0364
  480Sol     OW 4847   0.771   3.150   1.441  0.9300 -0.5200  0.4602
  480Sol     HW 4848   0.825   3.175   1.366 -0.1667  1.8417  0.4212
  480Sol     HW 4849   0.708   3.088   1.405 -0.0163  1.1028 -0.7418
  480Sol     MW 4850   0.770   3.147   1.431 -0.3012 -0.5102  0.2458
  481Sol     OW 4851   1.332   3.062   9.587 -0.3361  0.1420  0.2347
  481Sol     HW 4852   1.322   3.098   9.675  0.2544 -0.4490  0.5507
  481Sol     HW 4853   1.394   2.990   9.598  0.9715  1.0613 -0.9286
  481Sol     MW 4854   1.337   3.059   9.596  0.3283 -0.4658 -0.2827
  482Sol     OW 4855   2.686   0.704   4.857  0.5849 -0.0079  0.1705
  482Sol     HW 4856   2.674   0.640   4.787 -1.4053  0.7532 -0.2103
  482Sol     HW 4857   2.658   0.787   4.820 -2.0262  0.1485  2.3027
  482Sol     MW 4858   2.682   0.706   4.848  0.3183  0.1851 -0.5185
  483Sol     OW 4859   2.392   1.033   3.125  0.0445 -0.2238 -0.3039
  483Sol     HW 4860   2.394   1.030   3.029  0.8014 -1.2682 -0.2618
  483Sol     HW 4861   2.364   1.123   3.146  1.8370  0.6385 -1.4801
  483Sol     MW 4862   2.389   1.041   3.118 -0.3461  0.1222  0.1151
  484Sol     OW 4863   1.996   3.345   4.272 -0.2589 -0.4449  0.5869
  484Sol     HW 4864   2.063   3.277   4.264  0.8329  0.6715 -0.0180
  484Sol     HW 4865   1.967   3.361   4.183  0.9781  1.3128  0.4715
  484Sol     MW 4866   2.000   3.340   4.263 -0.0870 -0.4308  0.0406
  485Sol     OW 4867   2.701   0.757   6.559  0.1926  0.4145  0.9770
  485Sol     HW 4868   2.650   0.796   6.631  1.8467  0.3045  2.2326
  485Sol     HW 4869   2.792   0.769   6.585  0.8297  1.0379 -1.4937
  485Sol     MW 4870   2.704   0.761   6.568 -0.1614 -0.2171  0.1091
  486Sol     OW 4871   2.584   0.902   6.030  0.2716  0.3526  0.0511
  486Sol     HW 4872   2.679   0.894   6.020  0.1184  0.1963 -1.3410
  486Sol     HW 4873   2.567   0.996   6.033  0.4766  0.3791  0.4099
  486Sol     MW 4874   2.591   0.909   6.030 -0.2289  0.2032  0.2518
  487Sol     OW 4875   1.013   3.006   2.959  0.6749  0.0587  0.1492
  487Sol     HW 4876   1.101   3.030   2.991  1.3677 -2.0624 -0.0855
  487Sol     HW 4877   0.998   3.065   2.885  1.3162  1.3718  1.0417
  487Sol     MW 4878   1.020   3.013   2.956  0.0286 -0.4415 -0.2867
  488Sol     OW 4879   1.275   3.185   9.847  0.0788  0.2575 -0.1327
  488Sol     HW 4880   1.200   3.225   9.803 -1.4546 -0.3596  1.8573
  488Sol     HW 4881   1.322   3.258   9.886 -0.7103  0.4557  0.4565
  488Sol     MW 4882   1.273   3.195   9.846  0.0357 -0.1067 -0.1753
  489Sol     OW 4883   1.256   2.848   4.888  0.4297 -0.0978  0.5353
  489Sol     HW 4884   1.321   2.778   4.886 -1.7622 -2.1902 -3.1712
  489Sol     HW 4885   1.182   2.811   4.935 -1.2784 -0.9480 -2.6220
  489Sol     MW 4886   1.255   2.838   4.892  0.3602 -0.0257  0.2613
  490Sol     OW 4887   1.339   1.678   1.621 -0.2957  0.0534 -0.5958
  490Sol     HW 4888   1.245   1.676   1.606 -0.4834  1.3603  0.4020
  490Sol     HW 4889   1.373   1.734   1.551 -0.1101 -1.3090 -1.6283
  490Sol     MW 4890   1.334   1.683   1.613 -0.4119  0.1822 -0.2922
  491Sol     OW 4891   1.815   3.171   2.292  0.1889 -0.3878 -0.7110
  491Sol     HW 4892   1.804   3.246   2.233 -1.3568 -0.1204 -0.0978
  491Sol     HW 4893   1.890   3.195   2.347 -1.8119  1.8308  1.1314
  491Sol     MW 4894   1.821   3.180   2.291  0.2657 -0.0858  0.0903
  492Sol     OW 4895   1.481   1.866   5.904 -0.8605  0.2713 -0.3571
  492Sol     HW 4896   1.486   1.928   5.977 -0.4524  0.8726 -0.8782
  492Sol     HW 4897   1.388   1.863   5.881 -0.9647  0.2154  0.0751
  492Sol     MW 4898   1.473   1.872   5.908  0.5207 -0.3021  0.3049
  493Sol     OW 4899   2.179   0.389   7.431  0.0139 -0.3225  0.1597
  493Sol     HW 4900   2.127   0.395   7.351  0.9486  0.4451 -0.4141
  493Sol     HW 4901   2.269   0.404   7.402  0.2325  1.1660  1.5182
  493Sol     MW 4902   2.183   0.391   7.421  0.0355 -0.5364  0.0886
  494Sol     OW 4903   2.618   2.601   6.210  0.0175 -0.1866  0.4388
  494Sol     HW 4904   2.576   2.609   6.296 -1.0545 -1.0833  0.0134
  494Sol     HW 4905   2.547   2.615   6.147  0.9570  1.2870 -0.3152
  494Sol     MW 4906   2.608   2.603   6.212  0.5531  0.6322  0.4128
  495Sol     OW 4907   2.718   0.207   9.332 -0.0632 -0.0490 -0.2089
  495Sol     HW 4908   2.626   0.218   9.356 -0.4199  0.2390 -1.6625
  495Sol     HW 4909   2.757   0.293   9.344 -0.0995 -0.0518 -0.0761
  495Sol     MW 4910   2.714   0.215   9.335  0.0299  0.8241 -0.7713
  496Sol     OW 4911   2.232   2.203   9.847 -0.5342  0.2655 -0.1884
  496Sol     HW 4912   2.230   2.291   9.811 -3.7154  0.3140  0.0056
  496Sol     HW 4913   2.146   2.190   9.886  1.0808 -1.6101  3.0322
  496Sol     MW 4914   2.224   2.210   9.847 -0.6019 -0.3733  0.0708
  497Sol     OW 4915   0.744   2.988   2.120 -0.8532 -0.3863  0.5890
  497Sol     HW 4916   0.753   2.965   2.028 -0.8272  0.7393  0.3053
  497Sol     HW 4917   0.690   3.067   2.121 -1.3916 -0.7476  1.5803
  497Sol     MW 4918   0.740   2.993   2.112  0.2573  0.0004  0.9286
  498Sol     OW 4919   2.401   1.579   4.531 -0.0205 -0.5570  0.3683
  498Sol     HW 4920   2.323   1.571   4.585  0.6937  1.9038  1.8347
  498Sol     HW 4921   2.393   1.664   4.489  1.0624 -1.0119 -0.7993
  498Sol     MW 4922   2.393   1.586   4.532 -0.0618 -0.2659 -0.7895
  499Sol     OW 4923   1.645   1.572   8.599  0.2588  0.6601  0.2382
  499Sol     HW 4924   1.597   1.631   8.542 -0.2278 -0.4716 -0.5244
  499Sol     HW 4925   1.737   1.595   8.585  0.2418 -0.5836 -2.1089
  499Sol     MW 4926   1.649   1.580   8.593 -0.0866  0.3505 -0.2966
  500Sol     OW 4927   0.492   0.291   3.942 -0.4799 -0.1269 -0.1312
  500Sol     HW 4928   0.452   0.301   3.856  0.3642 -2.1850 -0.7967
  500Sol     HW 4929   0.448   0.215   3.980 -0.0069  0.0308  0.7541
  500Sol     MW 4930   0.485   0.285   3.938 -0.2919 -0.8572 -0.0007
  501Sol     OW 4931   0.941   2.134   6.463 -0.0154  0.1306 -0.7229
  501Sol     HW 4932   0.930   2.174   6.550  2.6312 -0.6343  0.0131
  501Sol     HW 4933   0.914   2.202   6.402  0.4851  1.5970  0.6424
  501Sol     MW 4934   0.938   2.144   6.466  0.0555  0.2342  0.0546
  502Sol     OW 4935   2.298   0.998   2.276  0.3194 -0.4993 -0.0140
  502Sol     HW 4936   2.337   1.044   2.351 -0.7325  1.0528 -0.3846
  502Sol     HW 4937   2.288   1.067   2.209  0.1189 -1.6072 -1.1466
  502Sol     MW 4938   2.301   1.009   2.276  0.0627 -0.2452  0.2076
  503Sol     OW 4939   1.786   2.701   1.689  0.2015  0.3922  0.4316
  503Sol     HW 4940   1.787   2.618   1.641 -1.3543  0.2060  0.7203
  503Sol     HW 4941   1.851   2.755   1.643 -0.5248 -0.1358 -1.2831
  503Sol     MW 4942   1.792   2.698   1.680  0.1856  0.1735 -0.5436
  504Sol     OW 4943   0.788   2.479   4.605  0.3277  0.3550  0.6557
  504Sol     HW 4944   0.796   2.574   4.606  0.7047  0.3520 -1.0419
  504Sol     HW 4945   0.703   2.462   4.565  0.6632 -0.0381  0.1036
  504Sol     MW 4946   0.781   2.486   4.602 -0.2998 -0.7146  0.0996
  505Sol     OW 4947   2.892   3.386   4.152  0.3751 -0.7782 -0.0732
  505Sol     HW 4948   2.836   3.377   4.229  1.1615 -1.8873  0.3818
  505Sol     HW 4949   2.839   3.434   4.089 -0.1930  0.3530  1.2480
  505Sol     MW 4950   2.882   3.389   4.154 -0.2618  0.1417  0.2677
  506Sol     OW 4951   3.001   1.727   9.439  0.6138  0.0114 -0.0508
  506Sol     HW 4952   3.070   1.738   9.373  0.3498 -0.6908 -0.4527
  506Sol     HW 4953   2.932   1.677   9.394 -0.5857  1.5454  0.0506
  506Sol     MW 4954   3.001   1.723   9.429  1.0693  0.3004  0.5151
  507Sol     OW 4955   0.058   0.256   9.410  0.2824 -0.1091 -0.3002
  507Sol     HW 4956   0.033   0.329   9.467  1.8869  0.8921 -0.8492
  507Sol     HW 4957   0.152   0.243   9.428 -0.2383 -2.8860  0.7353
  507Sol     MW 4958   0.064   0.262   9.417 -0.1876  0.1607  0.3718
  508Sol     OW 4959   1.613   2.191   7.721  0.0077  0.5193  0.0392
  508Sol     HW 4960   1.531   2.152   7.693  0.2923 -0.2924  0.3207
  508Sol     HW 4961   1.587   2.271   7.768 -0.6077  0.2881  0.0923
  508Sol     MW 4962   1.604   2.195   7.723  0.6614 -0.0348  0.1472
  509Sol     OW 4963   2.767   1.541   9.607 -0.4207 -0.2054 -0.2121
  509Sol     HW 4964   2.861   1.553   9.621 -0.3513 -1.5010  0.5151
  509Sol     HW 4965   2.730   1.536   9.695 -0.9385 -1.3699 -0.4801
  509Sol     MW 4966   2.772   1.541   9.616  0.8216  0.2302  0.6199
  510Sol     OW 4967   0.737   0.732   6.509 -0.1097 -0.3556  0.3917
  510Sol     HW 4968   0.800   0.701   6.574 -0.0947 -1.5075 -0.1646
  510Sol     HW 4969   0.750   0.827   6.506  3.3406 -0.8019 -1.5026
  510Sol     MW 4970   0.744   0.738   6.514  0.9406  0.1091  0.6042
  511Sol     OW 4971   3.063   3.064   9.518 -0.0080 -0.2927  0.5277
  511Sol     HW 4972   3.153   3.071   9.549  0.2527 -1.0559 -0.0436
  511Sol     HW 4973   3.067   2.999   9.448 -0.9883 -0.2756  0.4535
  511Sol     MW 4974   3.071   3.059   9.515  0.4710 -0.3334 -0.3034
  512Sol     OW 4975   2.504   3.423   6.054  0.4643 -0.6092  0.2549
  512Sol     HW 4976   2.523   3.429   5.960  0.7827  0.4662  0.3853
  512Sol     HW 4977   2.411   3.440   6.062  0.2669 -1.5693  0.0493
  512Sol     MW 4978   2.498   3.425   6.046 -0.0946 -0.3378 -0.7745
  513Sol     OW 4979   2.373   2.420   2.706  0.0958 -0.1901 -0.6180
  513Sol     HW 4980   2.278   2.404   2.710 -0.0582  0.3645 -1.8791
  513Sol     HW 4981   2.382   2.498   2.651  1.2944 -0.2612 -0.5339
  513Sol     MW 4982   2.365   2.426   2.702 -0.2747  0.3767  0.1427
  514Sol     OW 4983   3.215   2.326   4.639 -0.6131 -0.0131 -0.4396
  514Sol     HW 4984   3.235   2.235   4.661  0.3020  0.3157  0.1179
  514Sol     HW 4985   3.298   2.362   4.606 -1.2711  0.2791 -1.8339
  514Sol     MW 4986   3.224   2.321   4.638 -0.3970 -0.5958  0.0525
  515Sol     OW 4987   2.122   0.243   1.753  0.3377 -0.1812 -0.0711
  515Sol     HW 4988   2.171   0.310   1.705  1.2004 -1.0115 -0.3684
  515Sol     HW 4989   2.033   0.277   1.758  0.3062  0.0790 -1.9978
  515Sol     MW 4990   2.118   0.252   1.749 -0.3738  0.1005 -0.6200
  516Sol     OW 4991   2.299   3.431   3.605 -0.1740  0.0186 -0.5032
  516Sol     HW 4992   2.282   3.337   3.606 -0.5756  0.0827  2.0626
  516Sol     HW 4993   2.218   3.471   3.636  0.4786  1.1084 -0.1527
  516Sol     MW 4994   2.290   3.427   3.608  0.3511 -0.6766  0.5452
  517Sol     OW 4995   2.991   2.682   9.132  0.0865 -0.1082  0.0589
  517Sol     HW 4996   2.910   2.637   9.157 -0.1980  0.8634  0.8965
  517Sol     HW 4997   2.976   2.709   9.041 -0.3334 -0.3718  0.0451
  517Sol     MW 4998   2.982   2.680   9.126  0.8807  0.4368  0.1921
  518Sol     OW 4999   2.705   1.799   3.071  0.1197 -0.4234 -0.0181
  518Sol     HW 5000   2.753   1.882   3.071 -2.4504  1.1251  0.1495
  518Sol     HW 5001   2.642   1.808   3.143 -0.7941 -2.1574 -0.5727
  518Sol     MW 5002   2.703   1.807   3.077  0.2122 -0.0583  0.0671
  519Sol     OW 5003   0.634   1.269   5.871  0.4295 -0.2887  0.1797
  519Sol     HW 5004   0.623   1.355   5.912  0.8222  0.4291 -1.1895
  519Sol     HW 5005   0.693   1.222   5.930  1.1643  0.8097  0.3329
  519Sol     MW 5006   0.639   1.273   5.880 -0.2995  0.2423  0.3693
  520Sol     OW 5007   1.189   0.275   7.981  0.3222 -0.0344  0.6042
  520Sol     HW 5008   1.224   0.212   8.044  0.6074 -2.4421 -1.8817
  520Sol     HW 5009   1.101   0.295   8.014  1.0430 -0.0115  2.6016
  520Sol     MW 5010   1.184   0.271   7.990  0.0028  0.1243  0.0279
  521Sol     OW 5011   0.623   3.071   4.501  0.3118 -0.4862  0.0096
  521Sol     HW 5012   0.632   3.008   4.429  2.6389 -0.8935  0.6299
  521Sol     HW 5013   0.580   3.021   4.570 -0.5179 -0.5416 -0.5363
  521Sol     MW 5014   0.620   3.060   4.501  0.6868  0.5412 -0.3858
  522Sol     OW 5015   3.032   0.716   7.192 -0.2066  0.3981  0.0875
  522Sol     HW 5016   3.079   0.712   7.108 -1.0468 -0.1130 -0.3708
  522Sol     HW 5017   3.086   0.665   7.252  0.8544  1.4980  0.0883
  522Sol     MW 5018   3.041   0.711   7.190  0.6254 -0.3470 -0.2245
  523Sol     OW 5019   2.130   3.309   6.637 -0.1679  0.3883  0.1975
  523Sol     HW 5020   2.176   3.361   6.703 -0.7982  0.0363  0.9169
  523Sol     HW 5021   2.046   3.353   6.626 -0.5953 -0.3179  0.6065
  523Sol     MW 5022   2.127   3.318   6.642  0.0843 -0.5183 -0.2916
  524Sol     OW 5023   2.852   1.431   5.617  0.0040 -0.8018  0.0362
  524Sol     HW 5024   2.783   1.427   5.551  0.3675 -0.8922 -0.3464
  524Sol     HW 5025   2.875   1.524   5.623 -1.5097 -0.5164  1.5996
  524Sol     MW 5026   2.848   1.439   5.612 -0.1025 -0.3623  0.5891
  525Sol     OW 5027   2.860   1.225   7.002 -0.5695 -0.1892  0.0125
  525Sol     HW 5028   2.920   1.171   6.950 -0.8986 -1.3774  0.8363
  525Sol     HW 5029   2.917   1.276   7.060 -0.0743  2.6543 -2.8536
  525Sol     MW 5030   2.870   1.225   7.003 -0.1930  0.3900 -0.0208
  526Sol     OW 5031   3.056   0.734   9.475 -0.0306  0.2297 -0.1365
  526Sol     HW 5032   2.969   0.765   9.452  0.0461 -0.8627 -1.9899
  526Sol     HW 5033   3.112   0.811   9.470 -0.3346  0.3499 -2.0457
  526Sol     MW 5034   3.053   0.743   9.473 -0.3754  0.2273  0.2551
  527Sol     OW 5035   1.269   0.686   8.149  0.6022  0.3211  0.1440
  527Sol     HW 5036   1.362   0.663   8.149  0.7073  0.6967 -1.2491
  527Sol     HW 5037   1.226   0.608   8.185  1.2624 -0.7948 -1.3987
  527Sol     MW 5038   1.274   0.677   8.152 -0.0640  0.3484  0.4461
  528Sol     OW 5039   1.938   1.588   4.206  0.4230 -0.1072 -0.6024
  528Sol     HW 5040   1.880   1.568   4.132 -0.4709 -0.3964  0.1704
  528Sol     HW 5041   2.014   1.531   4.191 -0.2048 -0.9288 -0.7585
  528Sol     MW 5042   1.940   1.581   4.198  0.4950  0.2692  0.2842
  529Sol     OW 5043   0.507   1.792   2.993 -0.4593 -0.1565 -0.5421
  529Sol     HW 5044   0.456   1.865   3.029 -0.7570  0.1901 -1.6199
  529Sol     HW 5045   0.498   1.722   3.057  0.5086  1.0202  0.8949
  529Sol     MW 5046   0.501   1.792   3.002  0.6345 -0.2686  0.8922
  530Sol     OW 5047   2.874   2.008   7.449  0.6007  0.2230 -0.1365
  530Sol     HW 5048   2.888   2.061   7.527  1.4638 -1.5800  0.9612
  530Sol     HW 5049   2.938   1.936   7.456 -1.0294 -1.3907 -1.1912
  530Sol     MW 5050   2.881   2.006   7.456  0.0800  0.3429  0.3641
  531Sol     OW 5051   1.050   0.473   8.252  0.1566  0.7412 -0.4152
  531Sol     HW 5052   1.090   0.398   8.297  0.2958  0.3311 -1.2167
  531Sol     HW 5053   0.965   0.485   8.295  0.1205  0.0981 -0.3083
  531Sol     MW 5054   1.046   0.467   8.260  0.0538  0.5893  0.5533
  532Sol     OW 5055   0.047   0.311   7.085 -0.5248 -0.5230 -0.0859
  532Sol     HW 5056  -0.028   0.259   7.056  0.5382 -2.4964  0.6573
  532Sol     HW 5057   0.052   0.296   7.179  0.8769 -0.4879 -0.1440
  532Sol     MW 5058   0.040   0.305   7.091 -0.0668  0.0506  0.2680
  533Sol     OW 5059   0.093   3.393   9.526 -0.3503 -0.4170  0.2103
  533Sol     HW 5060   0.076   3.486   9.541  0.1439  0.2203 -2.9060
  533Sol     HW 5061   0.119   3.360   9.612  3.8516  3.2730  0.5501
  533Sol     MW 5062   0.094   3.399   9.535 -0.0192 -0.0959  0.2940
  534Sol     OW 5063   0.139   0.193   6.027 -0.1301  0.0833  0.1226
  534Sol     HW 5064   0.209   0.166   6.085  0.5191  2.1794  0.3355
  534Sol     HW 5065   0.159   0.150   5.943  2.1241  1.6777 -0.1910
  534Sol     MW 5066   0.147   0.186   6.024  0.0546 -0.0924 -0.1845
  535Sol     OW 5067   1.639   1.965   8.336  0.0954  0.0551 -0.3218
  535Sol     HW 5068   1.612   2.044   8.383 -0.0447 -0.0742 -0.1859
  535Sol     HW 5069   1.735   1.968   8.337  0.0899  0.5911 -0.9324
  535Sol     MW 5070   1.645   1.972   8.340  0.3023  0.1118 -0.2767
  536Sol     OW 5071   2.590   3.192   4.429 -0.1231 -0.1212 -0.0101
  536Sol     HW 5072   2.505   3.167   4.391 -0.3440  0.4944  0.0584
  536Sol     HW 5073   2.642   3.112   4.428 -0.3472 -0.2650 -1.0302
  536Sol     MW 5074   2.587   3.183   4.425 -0.3838  0.6712 -0.4980
  537Sol     OW 5075   2.847   1.055   5.197  0.4488 -0.2787  0.4755
  537Sol     HW 5076   2.775   0.999   5.166  1.4670 -1.5738  0.3872
  537Sol     HW 5077   2.911   1.053   5.126  0.9235  0.2120  0.8853
  537Sol     MW 5078   2.846   1.050   5.188  0.2149 -0.3367 -0.5618
  538Sol     OW 5079   2.453   2.770   9.230 -0.2236 -0.0133 -0.0075
  538Sol     HW 5080   2.460   2.798   9.321 -0.7751 -1.1495  0.3890
  538Sol     HW 5081   2.541   2.783   9.194  0.0763  0.1330  0.7651
  538Sol     MW 5082   2.461   2.774   9.235 -0.6532  0.4985 -0.1474
  539Sol     OW 5083   2.837   0.896   8.105 -0.0306  0.0821 -0.3561
  539Sol     HW 5084   2.818   0.975   8.056 -1.9093  0.2135  0.5499
  539Sol     HW 5085   2.752   0.856   8.121  0.8437 -1.7822 -0.2395
  539Sol     MW 5086   2.828   0.899   8.102 -0.1571  0.2668 -0.0736
  540Sol     OW 5087   2.258   1.985   6.560 -0.5782 -0.0250  0.6032
  540Sol     HW 5088   2.190   2.026   6.613  0.2001  0.9615  0.8441
  540Sol     HW 5089   2.301   2.057   6.515  0.8582 -0.5600  1.0812
  540Sol     MW 5090   2.255   1.995   6.561 -0.0480  0.5436  0.5642
  541Sol     OW 5091   1.070   3.162   5.688 -0.0838 -0.2878  0.6060
  541Sol     HW 5092   1.107   3.076   5.672  1.5998  0.7177 -1.0377
  541Sol     HW 5093   1.099   3.185   5.776  1.4647 -0.4016  0.1291
  541Sol     MW 5094   1.076   3.157   5.695  0.1851  0.3447 -0.0771
  542Sol     OW 5095   2.959   0.190   9.794  0.5770 -0.0655  0.1504
  542Sol     HW 5096   2.877   0.215   9.752  0.4982  1.4112  1.1363
  542Sol     HW 5097   2.941   0.107   9.837 -0.4967  0.4322  0.6597
  542Sol     MW 5098   2.950   0.185   9.794  0.1872 -1.0958 -0.0490
  543Sol     OW 5099   0.284   0.961   2.857  0.2122 -0.0654  0.0382
  543Sol     HW 5100   0.319   0.932   2.941 -1.1163  0.3263  0.7254
  543Sol     HW 5101   0.348   1.025   2.825 -0.1188  1.0247  1.5270
  543Sol     MW 5102   0.293   0.964   2.862 -0.7590 -0.2303  0.1799
  544Sol     OW 5103   2.928   1.538   5.315 -0.1530 -0.1837  0.5296
  544Sol     HW 5104   2.881   1.456   5.331 -0.2213 -0.5717 -1.4472
  544Sol     HW 5105   3.019   1.518   5.335 -0.1922 -0.6996  0.2038
  544Sol     MW 5106   2.932   1.529   5.318  0.0088 -0.3823 -0.2892
  545Sol     OW 5107   2.580   3.194   1.370  0.7373 -0.2889 -0.4953
  545Sol     HW 5108   2.553   3.266   1.313  1.9081  0.2435 -0.3896
  545Sol     HW 5109   2.502   3.140   1.378  0.3900 -0.0536 -2.1153
  545Sol     MW 5110   2.571   3.196   1.366 -0.3363 -0.0416 -0.3791
  546Sol     OW 5111   0.232   0.758   1.382 -0.0930  0.2937 -0.0177
  546Sol     HW 5112   0.201   0.836   1.335 -1.2504 -1.6227 -2.5694
  546Sol     HW 5113   0.326   0.773   1.394 -0.0221  1.4537 -1.8048
  546Sol     MW 5114   0.238   0.766   1.379 -0.2241 -0.5351  0.1900
  547Sol     OW 5115   2.787   0.183   7.646 -0.7959 -0.2320 -0.2903
  547Sol     HW 5116   2.716   0.218   7.699  2.1087  2.0280  2.3504
  547Sol     HW 5117   2.785   0.089   7.660 -0.4445  0.2617  3.4971
  547Sol     MW 5118   2.781   0.178   7.652  0.1245  0.1090  0.4215
  548Sol     OW 5119   3.292   1.300   8.612  0.1035  0.4218  0.0803
  548Sol     HW 5120   3.234   1.280   8.538  0.4548 -3.3810  0.7402
  548Sol     HW 5121   3.380   1.281   8.579  0.5370  1.5292  0.5872
  548Sol     MW 5122   3.295   1.296   8.602 -0.1526  0.4421  0.1480
  549Sol     OW 5123   1.450   3.243   6.082 -0.1483 -0.3442  0.2117
  549Sol     HW 5124   1.463   3.166   6.139 -3.3040 -0.9428  0.2219
  549Sol     HW 5125   1.379   3.217   6.023 -0.1873  2.0270 -0.8305
  549Sol     MW 5126   1.445   3.233   6.082 -0.2272 -0.4502  0.6978
  550Sol     OW 5127   1.592   0.592   4.489  0.2663 -0.7914 -0.1262
  550Sol     HW 5128   1.510   0.557   4.523  1.1942 -1.6822  1.2607
  550Sol     HW 5129   1.639   0.622   4.567  1.2031 -0.1691 -0.9158
  550Sol     MW 5130   1.589   0.592   4.499 -0.0976  0.4009  0.0266
  551Sol     OW 5131   2.992   1.948   8.011  0.0258 -0.3220 -0.3954
  551Sol     HW 5132   3.076   1.921   7.972  0.1566  0.6557 -0.8132
  551Sol     HW 5133   2.985   2.041   7.990 -1.4838 -0.5439 -0.9276
  551Sol     MW 5134   2.999   1.954   8.005  0.1664 -0.3458 -0.3967
  552Sol     OW 5135   3.231   0.151   4.429  0.1463 -0.2856  0.3466
  552Sol     HW 5136   3.195   0.065   4.408  0.9690 -0.6524  0.4204
  552Sol     HW 5137   3.179   0.212   4.376 -0.4249 -0.8240  0.2763
  552Sol     MW 5138   3.223   0.149   4.422  0.1792  0.5207  0.1677
  553Sol     OW 5139   2.939   2.200   2.103  0.0794  0.4197  0.6793
  553Sol     HW 5140   2.924   2.131   2.168 -2.9121  0.5602  0.2032
  553Sol     HW 5141   2.989   2.267   2.150  2.0000 -1.5241  1.4778
  553Sol     MW 5142   2.942   2.200   2.113 -0.4393  0.2668  0.4612
  554Sol     OW 5143   0.771   1.534   6.869 -0.1547  0.1519  0.2008
  554Sol     HW 5144   0.772   1.505   6.960 -0.5883  0.4382  0.2991
  554Sol     HW 5145   0.751   1.628   6.874  1.5484  0.5388 -0.0987
  554Sol     MW 5146   0.769   1.540   6.878  0.6050  0.4173 -0.2046
  555Sol     OW 5147   1.193   0.889   2.634  0.6369  0.5221  0.3855
  555Sol     HW 5148   1.257   0.960   2.625  0.9337  0.0204 -1.6358
  555Sol     HW 5149   1.118   0.930   2.677  0.7883  2.0933 -0.7948
  555Sol     MW 5150   1.192   0.899   2.637 -0.1549 -0.2661  0.4009
  556Sol     OW 5151   2.477   3.027   7.603  0.5334  0.3212  0.5382
  556Sol     HW 5152   2.437   3.103   7.645 -1.7204 -0.2602 -0.4436
  556Sol     HW 5153   2.420   2.954   7.626  1.4021 -0.6726 -0.3891
  556Sol     MW 5154   2.468   3.027   7.608  0.3425  0.1412  0.6991
  557Sol     OW 5155   2.327   1.935   7.515 -0.2410  0.5246  0.2759
  557Sol     HW 5156   2.295   1.853   7.479 -0.6829  0.0915  1.6022
  557Sol     HW 5157   2.392   1.966   7.452 -1.6021  0.2332 -1.2833
  557Sol     MW 5158   2.330   1.931   7.506 -0.1684  0.0813 -0.8134
  558Sol     OW 5159   3.066   0.177   1.661  0.3205 -0.2103  0.7061
  558Sol     HW 5160   3.016   0.118   1.718 -0.6881  0.1606  0.2162
  558Sol     HW 5161   3.145   0.128   1.640  0.3531 -0.6505  1.8179
  558Sol     MW 5162   3.068   0.167   1.664  0.5995 -0.0230  0.4000
  559Sol     OW 5163   2.521   2.192   7.242 -0.2286  0.4428 -0.0185
  559Sol     HW 5164   2.452   2.139   7.203 -0.3148  0.7039 -0.2263
  559Sol     HW 5165   2.545   2.146   7.322  0.7742 -0.7291 -0.9856
  559Sol     MW 5166   2.517   2.183   7.245 -0.3321 -0.4335 -0.1895
  560Sol     OW 5167   1.332   1.993   4.366 -0.2091  0.1663 -0.4432
  560Sol     HW 5168   1.280   2.050   4.422 -0.4164  0.0389 -0.5053
  560Sol     HW 5169   1.408   2.046   4.341 -0.3451  0.3750 -0.4093
  560Sol     MW 5170   1.334   2.003   4.368  0.3519  0.3946 -0.9276
  561Sol     OW 5171   0.785   0.782   8.499 -0.0719  0.4671  1.0436
  561Sol     HW 5172   0.732   0.780   8.420  0.6896 -0.9916  0.5505
  561Sol     HW 5173   0.733   0.736   8.565 -0.0689  0.3683  0.9767
  561Sol     MW 5174   0.776   0.777   8.498 -0.1577 -0.0172  0.1753
  562Sol     OW 5175   2.377   1.560   8.095  0.4634 -0.0298  0.2147
  562Sol     HW 5176   2.417   1.591   8.176 -1.5410  4.3930 -0.3429
  562Sol     HW 5177   2.415   1.616   8.027 -2.1029  0.1656 -1.1047
  562Sol     MW 5178   2.384   1.568   8.096  0.5083 -0.4350  0.4075
  563Sol     OW 5179   1.000   2.522   2.551  0.0256 -0.3332 -0.6382
  563Sol     HW 5180   0.937   2.451   2.538  1.2988 -1.0457 -3.2082
  563Sol     HW 5181   1.074   2.481   2.595  1.1219 -0.8595 -2.8818
  563Sol     MW 5182   1.001   2.512   2.554  0.2438 -0.1308 -0.3457
  564Sol     OW 5183   2.650   0.237   8.731  0.5136 -0.0607 -0.1017
  564Sol     HW 5184   2.721   0.238   8.795  0.5626 -1.4406 -0.1238
  564Sol     HW 5185   2.678   0.299   8.663  1.6274 -0.4857 -0.0431
  564Sol     MW 5186   2.659   0.243   8.731  0.0279 -0.2060 -0.3261
  565Sol     OW 5187   0.192   2.568   7.957  0.2217  0.0341 -0.7200
  565Sol     HW 5188   0.148   2.628   7.897 -1.8158 -1.3512 -0.6890
  565Sol     HW 5189   0.128   2.553   8.027 -0.1597 -3.6785 -1.7474
  565Sol     MW 5190   0.182   2.572   7.958 -0.4579 -0.1331 -0.6069
  566Sol     OW 5191   0.853   1.032   6.741  0.0097 -0.0934  0.2251
  566Sol     HW 5192   0.819   1.013   6.828 -2.5673  0.2641 -0.6326
  566Sol     HW 5193   0.948   1.021   6.748 -0.3375 -1.9176  2.5733
  566Sol     MW 5194   0.858   1.030   6.749  0.2556 -0.4634  0.3629
  567Sol     OW 5195   0.138   2.864   1.923 -0.0021 -0.0751 -0.2480
  567Sol     HW 5196   0.096   2.787   1.884 -0.3694 -0.3532  0.6890
  567Sol     HW 5197   0.224   2.833   1.951  0.1748  0.0680 -0.6287
  567Sol     MW 5198   0.142   2.854   1.922 -0.0614 -0.5692  0.2700
  568Sol     OW 5199   1.714   1.264   7.838  0.0680 -0.6037  0.2725
  568Sol     HW 5200   1.761   1.190   7.798  0.4817 -1.5372  2.4103
  568Sol     HW 5201   1.725   1.251   7.932 -0.2277  1.9713  0.6929
  568Sol     MW 5202   1.719   1.256   7.843 -0.0967 -0.1255  0.0340
  569Sol     OW 5203   1.093   1.521   7.687  0.2761  0.5550 -0.0699
  569Sol     HW 5204   1.038   1.591   7.722  0.5343  0.7309 -0.0076
  569Sol     HW 5205   1.037   1.444   7.684 -0.2119  0.9401 -0.8022
  569Sol     MW 5206   1.083   1.520   7.690 -0.2959 -1.0498 -0.3235
  570Sol     OW 5207   2.506   1.581   2.792  0.5261 -0.0047 -0.0141
  570Sol     HW 5208   2.548   1.665   2.813  0.8537  0.0623 -0.9249
  570Sol     HW 5209   2.428   1.605   2.742 -0.4371 -0.1483  1.3808
  570Sol     MW 5210   2.503   1.591   2.790  0.3613  0.4489 -0.0072
  571Sol     OW 5211   1.330   0.386   4.291 -0.2056 -0.0867  0.3026
  571Sol     HW 5212   1.263   0.429   4.237 -1.2904  0.0547  1.7425
  571Sol     HW 5213   1.295   0.298   4.306  1.3268 -1.0297 -1.4069
  571Sol     MW 5214   1.321   0.382   4.287 -0.2662  0.1189  0.2648
  572Sol     OW 5215   0.326   2.000   6.593 -0.7278  0.5500 -0.1917
  572Sol     HW 5216   0.295   2.054   6.520 -2.4281  1.3238  1.0567
  572Sol     HW 5217   0.253   1.999   6.655  1.0326  0.7675  1.9669
  572Sol     MW 5218   0.317   2.005   6.592 -0.7302  0.3969 -0.0921
  573Sol     OW 5219   2.961   1.780   8.750  0.2351 -0.2237 -0.0997
  573Sol     HW 5220   3.038   1.833   8.732 -0.9833  0.9133 -2.1334
  573Sol     HW 5221   2.923   1.762   8.664 -1.5180 -1.1667  0.8359
  573Sol     MW 5222   2.965   1.783   8.741 -0.1078 -0.1079  0.3757
  574Sol     OW 5223   1.637   2.321   8.696 -0.5990  0.0123  0.0415
  574Sol     HW 5224   1.569   2.355   8.754 -0.3874  0.2476  0.1550
  574Sol     HW 5225   1.691   2.398   8.676 -1.8785  0.3875 -2.1537
  574Sol     MW 5226   1.635   2.331   8.700 -0.2783 -0.3364 -0.1691
  575Sol     OW 5227   1.273   0.221   1.771  0.5997 -0.0510  0.1059
  575Sol     HW 5228   1.290   0.154   1.705  0.0109  0.6541 -0.7804
  575Sol     HW 5229   1.355   0.271   1.775  0.4058  0.3395 -0.6197
  575Sol     MW 5230   1.282   0.220   1.765  0.4370 -0.2244  0.2734
  576Sol     OW 5231   3.286   0.680   6.474 -0.7802 -0.6677 -0.1175
  576Sol     HW 5232   3.368   0.631   6.479  0.5045  1.2674 -1.7054
  576Sol     HW 5233   3.309   0.768   6.503 -2.3011 -0.0907 -0.6030
  576Sol     MW 5234   3.296   0.684   6.477  0.0336  0.2502 -0.1583
  577Sol     OW 5235   1.381   0.719   9.614  0.0284  0.2299  0.5089
  577Sol     HW 5236   1.331   0.789   9.656  0.3801  0.4305  0.5896
  577Sol     HW 5237   1.314   0.660   9.578 -0.2812 -0.0256  1.4789
  577Sol     MW 5238   1.371   0.720   9.615 -0.0730 -0.1403 -0.3863
  578Sol     OW 5239   2.365   0.796   5.845 -0.1721  0.2856 -0.2000
  578Sol     HW 5240   2.437   0.835   5.895  1.0761  0.5539 -2.1472
  578Sol     HW 5241   2.387   0.703   5.841 -0.2742  0.2635 -0.2370
  578Sol     MW 5242   2.374   0.791   5.849 -0.9137  0.1298 -0.1967
  579Sol     OW 5243   2.069   1.589   9.524 -0.3897  0.0851  0.3630
  579Sol     HW 5244   2.162   1.569   9.533 -0.5626 -0.4432  0.9556
  579Sol     HW 5245   2.067   1.683   9.506  0.3541 -0.2249 -1.4267
  579Sol     MW 5246   2.078   1.596   9.523 -0.0416 -0.6364  0.4134
  580Sol     OW 5247   3.293   3.325   5.777 -0.1101  0.0663 -0.4278
  580Sol     HW 5248   3.208   3.361   5.750 -1.6650 -3.4838 -0.6247
  580Sol     HW 5249   3.281   3.304   5.870  0.8117  0.2686 -0.2642
  580Sol     MW 5250   3.284   3.326   5.783 -0.3553  0.5007 -0.2473
  581Sol     OW 5251   0.009   2.670   3.247 -0.0144  0.4043 -0.5548
  581Sol     HW 5252   0.043   2.670   3.336  0.5240 -0.8797 -0.7457
  581Sol     HW 5253   0.008   2.762   3.221  0.0283  0.7609  0.6967
  581Sol     MW 5254   0.012   2.678   3.252 -0.5168  0.2244  0.5771
  582Sol     OW 5255   0.351   0.975   5.512  0.1836  0.5334 -0.3047
  582Sol     HW 5256   0.286   0.939   5.572  1.1075  1.0257  1.0240
  582Sol     HW 5257   0.329   0.938   5.427 -0.1012 -1.5735  0.6496
  582Sol     MW 5258   0.344   0.969   5.510 -0.8198 -0.3398  0.2059
  583Sol     OW 5259   2.127   3.392   8.385  0.6811 -0.0943  0.5436
  583Sol     HW 5260   2.222   3.386   8.395  0.4607 -0.5306  2.4523
  583Sol     HW 5261   2.108   3.485   8.391  0.8321 -0.1321  1.5764
  583Sol     MW 5262   2.134   3.400   8.386 -0.0749 -0.4079  0.5976
  584Sol     OW 5263   2.627   1.061   9.259  0.2737  0.3831  0.1297
  584Sol     HW 5264   2.690   1.125   9.225  0.3953 -0.9649 -2.2623
  584Sol     HW 5265   2.653   0.978   9.219 -2.0874 -0.4905  0.3464
  584Sol     MW 5266   2.635   1.059   9.253  0.0235  0.1717 -0.0534
  585Sol     OW 5267   2.801   2.362   8.481 -0.4962  0.1746  0.1979
  585Sol     HW 5268   2.708   2.355   8.459 -1.0183  1.3918  1.8616
  585Sol     HW 5269   2.823   2.453   8.462  0.7315 -0.4595 -1.4958
  585Sol     MW 5270   2.794   2.369   8.478 -0.1338  0.2381 -0.0176
  586Sol     OW 5271   0.320   1.107   7.334  0.5203  0.5605 -0.5165
  586Sol     HW 5272   0.379   1.042   7.295 -1.0054 -0.9452 -0.3787
  586Sol     HW 5273   0.240   1.100   7.283 -0.2565  1.1240  0.6150
  586Sol     MW 5274   0.318   1.101   7.326 -0.1638  0.2381 -0.1433
  587Sol     OW 5275   1.273   1.201   9.931  0.3990 -0.0726 -0.1522
  587Sol     HW 5276   1.343   1.266   9.928  1.3492 -1.0470  0.1322
  587Sol     HW 5277   1.230   1.207   9.846 -0.6577  2.1103  0.4925
  587Sol     MW 5278   1.275   1.207   9.923  0.0920 -0.3772 -0.8302
  588Sol     OW 5279   0.428   2.446   9.161  0.0221 -0.3453 -0.0857
  588Sol     HW 5280   0.474   2.405   9.235 -1.4179 -1.4319  0.2410
  588Sol     HW 5281   0.454   2.538   9.164 -0.8096 -0.1596  2.4115
  588Sol     MW 5282   0.435   2.450   9.168  0.3733  0.3467 -0.2670
  589Sol     OW 5283   2.992   0.278   2.026 -0.6507 -0.4572  0.0240
  589Sol     HW 5284   2.940   0.288   1.946  0.2036 -2.6855 -0.8723
  589Sol     HW 5285   3.064   0.219   2.000  0.7651  0.3865  1.9292
  589Sol     MW 5286   2.994   0.273   2.017  0.3295  0.2114  0.0339
  590Sol     OW 5287   2.932   2.034   7.147 -0.1194  0.2675 -0.3632
  590Sol     HW 5288   2.960   2.108   7.092 -1.6612  0.4977 -0.8787
  590Sol     HW 5289   2.897   2.076   7.226  0.0920  0.0352 -0.1490
  590Sol     MW 5290   2.931   2.045   7.149  0.0337 -1.3095  0.6257
  591Sol     OW 5291   0.110   0.249   1.379 -0.6334 -0.4185  0.0886
  591Sol     HW 5292   0.077   0.190   1.311  1.4238  0.6603 -1.9296
  591Sol     HW 5293   0.108   0.336   1.339 -2.4475  0.7670  2.5891
  591Sol     MW 5294   0.107   0.252   1.369 -0.3125 -0.5244  0.0749
  592Sol     OW 5295   0.230   1.686   7.059 -0.4882  0.0787  0.3622
  592Sol     HW 5296   0.273   1.702   6.975  1.7267  1.4463  1.7029
  592Sol     HW 5297   0.221   1.591   7.064  1.6362 -0.1850 -0.3576
  592Sol     MW 5298   0.233   1.679   7.052  0.0543 -0.0590  0.1327
  593Sol     OW 5299   0.164   1.672   5.520 -0.2883 -0.4720 -0.6686
  593Sol     HW 5300   0.096   1.728   5.483 -1.5947 -1.7839 -0.3106
  593Sol     HW 5301   0.169   1.697   5.612  0.6579  0.5197 -0.9690
  593Sol     MW 5302   0.159   1.679   5.525 -0.4881 -0.1166 -0.2947
  594Sol     OW 5303   0.926   0.831   9.696 -0.0343  0.6142 -0.1799
  594Sol     HW 5304   0.875   0.873   9.765 -0.2046  0.3188 -0.1228
  594Sol     HW 5305   0.861   0.784   9.644  0.1375  0.5301 -0.3200
  594Sol     MW 5306   0.916   0.830   9.698 -0.1441  0.0774 -0.1623
  595Sol     OW 5307   3.108   3.237   1.606  0.1088  0.4018  0.1977
  595Sol     HW 5308   3.115   3.146   1.633  0.7394  0.8464  1.6264
  595Sol     HW 5309   3.192   3.276   1.631 -0.3942  1.5121  0.2234
  595Sol     MW 5310   3.116   3.233   1.611  0.3652 -0.6608  0.3862
  596Sol     OW 5311   0.487   1.246   1.418 -0.4073 -0.8473 -0.2986
  596Sol     HW 5312   0.529   1.248   1.503 -0.9654  1.0060 -0.0410
  596Sol     HW 5313   0.530   1.316   1.368 -0.7618 -1.2654 -1.2075
  596Sol     MW 5314   0.495   1.253   1.421 -0.5420 -0.1642 -0.1645
  597Sol     OW 5315   0.803   0.245   2.580  0.7070  0.1759 -0.0616
  597Sol     HW 5316   0.892   0.260   2.549  0.5853 -0.0238 -0.5155
  597Sol     HW 5317   0.747   0.290   2.516  0.4851  0.3240  0.2364
  597Sol     MW 5318   0.806   0.250   2.571  0.2848 -0.4668 -0.6195
  598Sol     OW 5319   2.751   0.684   7.605  0.3204  0.7142 -0.1735
  598Sol     HW 5320   2.753   0.686   7.509 -1.8531  0.0398 -0.2581
  598Sol     HW 5321   2.779   0.596   7.628  0.3596  0.7164 -0.2125
  598Sol     MW 5322   2.754   0.677   7.598 -0.6072  0.0038  0.6507
  599Sol     OW 5323   0.822   1.253   6.341 -0.0299  0.3726 -0.2554
  599Sol     HW 5324   0.882   1.255   6.267 -0.3838  1.0187 -0.5322
  599Sol     HW 5325   0.804   1.345   6.360  0.4090  0.2192  0.9216
  599Sol     MW 5326   0.825   1.262   6.336 -0.3973  0.6579 -0.0391
  600Sol     OW 5327   2.428   0.291   6.917  0.1487 -0.5525 -0.0751
  600Sol     HW 5328   2.475   0.208   6.925  2.8169  0.7856 -1.2893
  600Sol     HW 5329   2.418   0.304   6.823  1.0380  1.1841  0.0518
  600Sol     MW 5330   2.431   0.285   6.909 -0.2350  0.5722 -0.3606
  601Sol     OW 5331   0.924   1.030   9.324 -0.3143  0.5086  0.0914
  601Sol     HW 5332   0.848   0.986   9.363  0.2718 -0.5443  0.0589
  601Sol     HW 5333   0.999   0.977   9.350  0.1870  0.2858 -1.7126
  601Sol     MW 5334   0.924   1.021   9.330 -0.4492 -0.3602 -0.4624
  602Sol     OW 5335   2.480   1.616   6.316 -0.7402  0.2869 -0.1147
  602Sol     HW 5336   2.527   1.693   6.284  0.3207 -0.0436  0.6372
  602Sol     HW 5337   2.423   1.649   6.385 -1.5189  0.6660 -0.9301
  602Sol     MW 5338   2.479   1.626   6.319 -0.2749 -0.0914  0.1836
  603Sol     OW 5339   2.744   0.572   6.330  0.2659  0.1093  0.3053
  603Sol     HW 5340   2.748   0.626   6.410  1.5177  1.2763 -0.5057
  603Sol     HW 5341   2.665   0.602   6.285  0.9861  1.3446 -0.1691
  603Sol     MW 5342   2.737   0.580   6.333 -0.4645 -0.0827  1.1443
  604Sol     OW 5343   3.168   0.738   6.931  0.2139 -0.2050 -0.0764
  604Sol     HW 5344   3.163   0.686   6.850  0.5120  0.5953 -0.6108
  604Sol     HW 5345   3.239   0.698   6.981  0.4552 -0.3110 -0.4988
  604Sol     MW 5346   3.174   0.730   6.928 -0.7209  0.3043 -0.0289
  605Sol     OW 5347   1.626   2.307   3.319 -0.0370  0.1079  0.6705
  605Sol     HW 5348   1.661   2.390   3.353  2.8910 -0.2001 -1.3307
  605Sol     HW 5349   1.616   2.251   3.396 -1.5568  2.1194  1.9783
  605Sol     MW 5350   1.629   2.310   3.329  0.3741 -0.2758  0.3676
  606Sol     OW 5351   0.403   0.718   9.599  0.5691  0.0685  0.4398
  606Sol     HW 5352   0.477   0.734   9.658  1.0350 -0.4343 -0.0136
  606Sol     HW 5353   0.332   0.771   9.635  1.4474  1.3543  0.2720
  606Sol     MW 5354   0.403   0.724   9.608  0.2116  0.5691  0.1190
  607Sol     OW 5355   0.791   1.971   8.046  0.0378  0.2052 -0.7101
  607Sol     HW 5356   0.872   1.985   7.997  0.4349  0.2091 -0.0535
  607Sol     HW 5357   0.724   2.014   7.993  0.6645  1.3018 -0.6275
  607Sol     MW 5358   0.792   1.976   8.037  0.1497  0.0080  0.2332
  608Sol     OW 5359   1.461   1.337   4.813 -0.0005  0.3178  0.1451
  608Sol     HW 5360   1.411   1.406   4.768 -1.5313  0.6876  2.2834
  608Sol     HW 5361   1.546   1.377   4.830  0.0046  0.7739 -0.8781
  608Sol     MW 5362   1.464   1.347   4.811 -0.2824 -0.7564  0.1232
  609Sol     OW 5363   2.588   2.056   7.471 -0.1886 -0.2589  0.0473
  609Sol     HW 5364   2.684   2.058   7.463 -0.1404 -0.2154  0.6056
  609Sol     HW 5365   2.571   2.086   7.560 -0.9528  3.6256 -1.3162
  609Sol     MW 5366   2.595   2.059   7.478 -0.4878  0.2110  0.2919
  610Sol     OW 5367   0.026   2.632   2.814 -0.1578 -0.1716  0.2172
  610Sol     HW 5368  -0.001   2.650   2.723 -0.7400  0.2087  0.4638
  610Sol     HW 5369  -0.003   2.709   2.863  0.3912 -0.2594  0.6834
  610Sol     MW 5370   0.021   2.641   2.810 -0.4306  0.6757 -0.4871
  611Sol     OW 5371   2.906   1.694   5.695  0.0124 -0.1369 -0.0521
  611Sol     HW 5372   2.963   1.758   5.738  0.5776 -0.8496  0.2729
  611Sol     HW 5373   2.895   1.729   5.606  1.6988 -0.4362 -0.4049
  611Sol     MW 5374   2.910   1.703   5.691 -0.3125  0.2748  0.5309
  612Sol     OW 5375   0.843   2.839   5.040 -0.0943  0.1814  0.2551
  612Sol     HW 5376   0.805   2.922   5.013 -1.5647  0.0129  1.7582
  612Sol     HW 5377   0.898   2.860   5.115 -0.0160 -0.1212  0.2854
  612Sol     MW 5378   0.845   2.848   5.044  0.4279 -0.3032  0.0965
  613Sol     OW 5379   0.430   0.113   6.186  0.3983 -0.1095  0.1407
  613Sol     HW 5380   0.446   0.206   6.199 -0.7911 -0.3460  3.7838
  613Sol     HW 5381   0.407   0.080   6.273 -0.8912 -3.4729 -1.3974
  613Sol     MW 5382   0.430   0.118   6.195  0.0575  0.1517 -0.2361
  614Sol     OW 5383   2.268   1.254   7.930  0.0628 -0.1213 -0.0212
  614Sol     HW 5384   2.337   1.318   7.912 -0.0900 -0.2019 -0.9125
  614Sol     HW 5385   2.200   1.274   7.866  0.2784 -1.5739 -0.7233
  614Sol     MW 5386   2.268   1.262   7.923  0.0557 -0.2687 -0.0754
  615Sol     OW 5387   0.378   2.112   2.905  0.2649  0.2547  0.0193
  615Sol     HW 5388   0.398   2.064   2.985 -0.3233  1.4838  0.9277
  615Sol     HW 5389   0.450   2.093   2.846  3.1672  3.0060  2.4770
  615Sol     MW 5390   0.386   2.106   2.907  0.1731 -0.0286 -0.1854
  616Sol     OW 5391   1.861   3.447   9.401  0.5870 -0.0827  0.3285
  616Sol     HW 5392   1.786   3.461   9.459  0.7594  0.0780  0.5123
  616Sol     HW 5393   1.899   3.364   9.431 -0.4452 -0.9932 -0.7748
  616Sol     MW 5394   1.857   3.441   9.409  0.8203 -0.1874  0.3077
  617Sol     OW 5395   3.314   3.074   9.556 -0.2439  0.1747  0.0104
  617Sol     HW 5396   3.377   3.012   9.593  1.1247  1.0973 -0.7464
  617Sol     HW 5397   3.348   3.160   9.581 -0.5567  0.7237 -1.4424
  617Sol     MW 5398   3.323   3.076   9.562 -0.5312  0.1555 -0.4812
  618Sol     OW 5399   1.881   2.947   4.122 -0.2770  0.8716  0.1497
  618Sol     HW 5400   1.870   2.859   4.086  1.9611  1.3646 -1.9106
  618Sol     HW 5401   1.924   2.933   4.207 -0.3089 -0.0476  0.0154
  618Sol     MW 5402   1.884   2.938   4.127 -0.0550 -0.2006  0.3113
  619Sol     OW 5403   1.405   1.620   6.027 -0.1606  0.2543 -0.3601
  619Sol     HW 5404   1.455   1.591   6.104  0.1510  1.0641 -0.2452
  619Sol     HW 5405   1.441   1.707   6.007 -0.2302  0.0458 -1.4311
  619Sol     MW 5406   1.413   1.625   6.032 -0.0450  0.7361 -0.3827
  620Sol     OW 5407   0.593   1.587   1.424  0.0459 -1.1328  0.0092
  620Sol     HW 5408   0.587   1.645   1.349 -1.8089 -0.9457  0.2849
  620Sol     HW 5409   0.524   1.617   1.483  2.1070 -0.6122  2.2567
  620Sol     MW 5410   0.587   1.595   1.423 -0.1923  0.2258  0.1262
  621Sol     OW 5411   0.485   3.382   5.513 -0.2179  0.1279  0.5689
  621Sol     HW 5412   0.536   3.441   5.458  0.0679  0.7858  1.5338
  621Sol     HW 5413   0.398   3.380   5.472 -0.0154  0.6304  0.1127
  621Sol     MW 5414   0.481   3.387   5.504 -0.3175 -0.1334  0.2294
  622Sol     OW 5415   0.992   2.213   4.933 -1.0934 -0.3265  0.1399
  622Sol     HW 5416   1.019   2.135   4.983  1.1720 -0.5911 -1.4187
  622Sol     HW 5417   0.930   2.179   4.869 -1.6295 -0.5103  0.7490
  622Sol     MW 5418   0.989   2.203   4.932  0.1336 -0.3478 -0.1073
  623Sol     OW 5419   0.480   0.325   8.680 -0.4091  0.7180 -0.3000
  623Sol     HW 5420   0.461   0.380   8.756 -3.0433 -1.3670  0.6449
  623Sol     HW 5421   0.497   0.239   8.717 -1.5374 -0.2821 -2.0566
  623Sol     MW 5422   0.480   0.322   8.690 -0.9115  0.2270 -0.4495
  624Sol     OW 5423   0.187   0.108   4.691 -0.3569 -0.0584 -0.1257
  624Sol     HW 5424   0.135   0.031   4.713  1.5871 -1.0898  1.0215
  624Sol     HW 5425   0.181   0.116   4.596 -2.8287  0.0351  0.0282
  624Sol     MW 5426   0.182   0.102   4.685 -0.3238 -0.2347 -1.1420
  625Sol     OW 5427   1.196   1.353   4.402  0.2167  0.0715  0.6727
  625Sol     HW 5428   1.178   1.310   4.486  0.8851 -0.4386  0.5560
  625Sol     HW 5429   1.212   1.445   4.425 -0.1574  0.0456  1.0407
  625Sol     MW 5430   1.196   1.357   4.411 -0.4000 -0.2574  0.5620
  626Sol     OW 5431   1.864   0.252   5.521 -0.7098  0.1007  0.0724
  626Sol     HW 5432   1.848   0.159   5.505 -1.1847  0.0434  0.8482
  626Sol     HW 5433   1.890   0.287   5.436  1.7215 -1.2011  0.2342
  626Sol     MW 5434   1.864   0.247   5.512  0.2919  0.1259 -0.4690
  627Sol     OW 5435   2.913   0.977   5.642  0.3877 -0.4368 -0.6333
  627Sol     HW 5436   2.844   1.043   5.641  1.3166  0.5768  0.3331
  627Sol     HW 5437   2.901   0.928   5.561 -0.9738  0.2341 -0.8505
  627Sol     MW 5438   2.906   0.979   5.635 -0.0191 -0.2450 -0.5569
  628Sol     OW 5439   2.481   2.850   9.471  0.1490 -0.3620 -0.0321
  628Sol     HW 5440   2.424   2.852   9.548  0.9724  4.8534  0.6521
  628Sol     HW 5441   2.562   2.809   9.502 -1.2663 -2.9048  0.4282
  628Sol     MW 5442   2.483   2.847   9.481  0.1363 -0.0724  0.7677
  629Sol     OW 5443   2.749   1.831   9.163  0.2779 -0.3197 -0.2269
  629Sol     HW 5444   2.738   1.781   9.244  2.5963  1.2120  1.0877
  629Sol     HW 5445   2.672   1.888   9.160 -0.0425 -0.6844  0.7013
  629Sol     MW 5446   2.741   1.832   9.170  0.3829 -0.0833  0.8882
  630Sol     OW 5447   0.846   3.447   7.115 -0.1959 -0.2792 -0.0658
  630Sol     HW 5448   0.818   3.530   7.154  0.8663 -0.4461  1.0734
  630Sol     HW 5449   0.773   3.387   7.131 -0.7287  0.2697 -0.3972
  630Sol     MW 5450   0.837   3.449   7.120 -0.0779 -0.5466  0.0830
  631Sol     OW 5451   2.350   1.939   5.189  0.1876 -0.0771  0.2573
  631Sol     HW 5452   2.340   1.849   5.218  0.4807 -0.0557  0.4269
  631Sol     HW 5453   2.260   1.970   5.175  0.0810 -0.3441  0.3485
  631Sol     MW 5454   2.341   1.934   5.191  0.7149 -0.1763  0.2322
  632Sol     OW 5455   1.115   2.308   8.547  0.1507  0.2106 -0.1514
  632Sol     HW 5456   1.166   2.249   8.492 -1.7989 -0.5631 -1.1763
  632Sol     HW 5457   1.024   2.283   8.532 -0.6224  2.3719  0.6758
  632Sol     MW 5458   1.111   2.301   8.541 -0.5071 -0.1819 -0.5610
  633Sol     OW 5459   0.193   1.194   5.126  0.3667  0.0594 -0.1094
  633Sol     HW 5460   0.205   1.272   5.071 -0.2769 -0.1195 -0.5099
  633Sol     HW 5461   0.225   1.221   5.212  1.9255  0.1704 -0.6941
  633Sol     MW 5462   0.197   1.204   5.129  0.2503 -0.0121  0.2587
  634Sol     OW 5463   0.017   1.021   9.844 -0.3465 -0.0362  0.3377
  634Sol     HW 5464   0.044   1.056   9.930 -0.1143 -1.2882  0.7937
  634Sol     HW 5465  -0.071   0.987   9.859 -0.7066  0.6758 -0.1869
  634Sol     MW 5466   0.012   1.021   9.853 -0.3067 -0.3014 -0.3944
  635Sol     OW 5467   3.289   3.150   8.371  1.0112  0.5592 -0.1536
  635Sol     HW 5468   3.213   3.098   8.397  2.3520 -1.4154 -0.1150
  635Sol     HW 5469   3.301   3.212   8.443 -1.4182  1.8631 -0.8299
  635Sol     MW 5470   3.283   3.151   8.380 -0.4355  0.1278  0.0614
  636Sol     OW 5471   2.002   2.081   6.619  0.0956  0.8028 -0.6191
  636Sol     HW 5472   1.998   2.164   6.666  1.8668  0.2075  0.6871
  636Sol     HW 5473   1.943   2.023   6.667  2.7166 -0.1204  1.6732
  636Sol     MW 5474   1.997   2.083   6.628 -0.2824  0.1377  0.0958
  637Sol     OW 5475   0.864   2.512   1.746  0.4169 -0.2069  0.2072
  637Sol     HW 5476   0.820   2.537   1.665 -0.0421  0.3727  0.6300
  637Sol     HW 5477   0.949   2.479   1.718  0.0594 -0.4982 -0.5474
  637Sol     MW 5478   0.868   2.511   1.736 -0.2177  0.3199  0.6124
  638Sol     OW 5479   2.091   1.351   6.674 -0.4565  0.3966 -0.6783
  638Sol     HW 5480   2.079   1.402   6.594 -0.8057  1.9734  0.3497
  638Sol     HW 5481   2.167   1.390   6.716  1.0488 -1.8255 -1.2836
  638Sol     MW 5482   2.097   1.359   6.671 -0.3053 -0.3539  0.2620
  639Sol     OW 5483   1.419   3.304   9.465 -0.5636 -0.9153 -0.0254
  639Sol     HW 5484   1.351   3.371   9.463  0.4543  0.1240 -1.3444
  639Sol     HW 5485   1.373   3.222   9.482 -2.0410 -0.1265 -0.1695
  639Sol     MW 5486   1.409   3.303   9.466 -0.4364  0.2177 -0.1655
  640Sol     OW 5487   2.795   0.536   2.088  0.2828  0.8622 -0.2028
  640Sol     HW 5488   2.757   0.460   2.133  0.6769  0.8151  0.0569
  640Sol     HW 5489   2.739   0.550   2.013 -0.3449  0.8913  0.2712
  640Sol     MW 5490   2.787   0.530   2.086  0.0022 -0.2852 -0.3813
  641Sol     OW 5491   1.903   1.387   1.987  0.7142  0.6959  0.0989
  641Sol     HW 5492   1.939   1.456   2.042 -0.6239  1.5579 -0.0734
  641Sol     HW 5493   1.853   1.433   1.920  1.4877 -0.3718 -1.2580
  641Sol     MW 5494   1.902   1.397   1.986  0.0084 -0.1088 -0.5253
  642Sol     OW 5495   1.139   2.900   3.278 -0.1459 -0.3126  0.6638
  642Sol     HW 5496   1.170   2.945   3.199 -2.4326  0.5630  0.2099
  642Sol     HW 5497   1.162   2.959   3.350 -1.3358  0.6799  0.2595
  642Sol     MW 5498   1.144   2.910   3.278 -0.1746 -0.9118  0.1656
  643Sol     OW 5499   2.684   2.315   3.573 -0.0910  0.2329 -0.5796
  643Sol     HW 5500   2.769   2.344   3.539  0.0306  0.3537 -0.1746
  643Sol     HW 5501   2.705   2.271   3.655 -0.0234 -2.9786 -2.2309
  643Sol     MW 5502   2.693   2.314   3.577 -0.4619  0.4242  0.1132
  644Sol     OW 5503   1.932   0.852   4.383  0.1199  0.3848  0.2597
  644Sol     HW 5504   1.885   0.931   4.412 -0.2875 -0.3055  1.4840
  644Sol     HW 5505   1.882   0.822   4.307 -0.6310  0.4280  0.7276
  644Sol     MW 5506   1.923   0.857   4.378  0.1170  0.3873 -0.2450
  645Sol     OW 5507   2.490   1.424   2.448 -0.5704 -0.1257 -0.3423
  645Sol     HW 5508   2.526   1.435   2.360 -1.1808 -0.0047 -0.5794
  645Sol     HW 5509   2.561   1.451   2.507  0.1638 -1.1085 -0.7710
  645Sol     MW 5510   2.500   1.427   2.445 -0.2169  0.0105  0.5714
  646Sol     OW 5511   0.284   1.181   4.160 -0.6388 -0.5837  0.3680
  646Sol     HW 5512   0.209   1.215   4.209 -0.8752  0.0360 -0.4174
  646Sol     HW 5513   0.351   1.165   4.226 -1.1300 -0.2222  0.9547
  646Sol     MW 5514   0.283   1.183   4.170  0.0765 -0.1576 -0.1798
  647Sol     OW 5515   3.037   1.956   5.814  0.1615  0.4247 -0.4674
  647Sol     HW 5516   2.988   1.943   5.895 -1.1521 -0.4878 -1.3901
  647Sol     HW 5517   2.999   2.036   5.776  0.7113  0.7980 -0.2521
  647Sol     MW 5518   3.029   1.962   5.818 -0.0459 -0.3507  0.2579
  648Sol     OW 5519   3.238   1.453   6.989 -0.6636  0.4289 -0.3121
  648Sol     HW 5520   3.251   1.509   6.913  0.0418 -0.5231 -0.8958
  648Sol     HW 5521   3.326   1.426   7.014 -1.0939 -1.6082 -0.9271
  648Sol     MW 5522   3.247   1.456   6.985 -0.3981  0.3275  0.2919
  649Sol     OW 5523   2.405   2.085   8.572 -0.3981 -0.9700  0.3462
  649Sol     HW 5524   2.402   2.107   8.665  1.2725  0.5704  0.0816
  649Sol     HW 5525   2.330   2.028   8.558 -0.8001 -1.0440  2.5911
  649Sol     MW 5526   2.398   2.082   8.579  0.4796  0.1196 -0.6301
  650Sol     OW 5527   2.674   2.091   2.369 -0.4300  0.2413 -0.3631
  650Sol     HW 5528   2.712   2.096   2.457 -0.9293  1.5695 -0.2217
  650Sol     HW 5529   2.627   2.173   2.358  1.3586  1.0118 -2.6829
  650Sol     MW 5530   2.673   2.099   2.376  0.0808  0.0220 -0.4281
  651Sol     OW 5531   2.405   1.981   1.371 -0.3885 -0.2774  0.5081
  651Sol     HW 5532   2.494   2.003   1.342 -0.9448 -0.3016 -1.2938
  651Sol     HW 5533   2.415   1.898   1.418  0.2753 -1.3113 -1.3910
  651Sol     MW 5534   2.414   1.976   1.372  0.1374  0.3970  0.4258
  652Sol     OW 5535   2.935   0.952   7.300 -0.4466  1.1454 -0.4147
  652Sol     HW 5536   2.854   0.988   7.264 -2.0524  0.3447  2.2144
  652Sol     HW 5537   2.952   0.875   7.247 -0.4320  2.2616 -2.0883
  652Sol     MW 5538   2.929   0.949   7.292  0.1855  0.3069 -0.2945
  653Sol     OW 5539   0.340   2.551   3.710  0.0000  0.1229  0.0587
  653Sol     HW 5540   0.388   2.632   3.728 -0.6946  0.3221  1.0552
  653Sol     HW 5541   0.358   2.494   3.785 -2.3264  0.6781  1.0942
  653Sol     MW 5542   0.346   2.553   3.718 -0.7713 -0.0261 -0.1054
  654Sol     OW 5543   2.547   0.792   9.537  0.3764  0.3944 -0.1673
  654Sol     HW 5544   2.542   0.840   9.620 -0.8423  1.4644 -0.8509
  654Sol     HW 5545   2.457   0.792   9.503  0.4778 -1.7454 -0.5449
  654Sol     MW 5546   2.538   0.796   9.542 -0.4201  0.4737  0.1528
  655Sol     OW 5547   0.287   1.532   4.211 -0.2612 -0.4861 -0.2194
  655Sol     HW 5548   0.278   1.612   4.263  0.4262 -0.9173  0.5756
  655Sol     HW 5549   0.302   1.463   4.275 -2.8867 -1.5905 -0.7544
  655Sol     MW 5550   0.288   1.533   4.221  0.5273  0.0952  0.0525
  656Sol     OW 5551   1.519   1.094   8.991 -0.1409 -0.4517 -0.0034
  656Sol     HW 5552   1.505   1.046   8.910 -0.8598  0.9288 -0.7251
  656Sol     HW 5553   1.581   1.164   8.966  0.2679 -0.5107  0.8277
  656Sol     MW 5554   1.523   1.096   8.982 -0.2950 -0.7991 -0.0784
  657Sol     OW 5555   0.175   2.499   1.624 -0.5523 -0.1500 -0.0133
  657Sol     HW 5556   0.201   2.411   1.596 -1.8114 -0.2426 -0.9324
  657Sol     HW 5557   0.099   2.520   1.571 -2.4431  0.0761  2.6610
  657Sol     MW 5558   0.170   2.493   1.617  0.0470 -0.2982 -0.1881
  658Sol     OW 5559   2.657   2.762   8.639 -0.0650 -0.0633 -0.2261
  658Sol     HW 5560   2.579   2.816   8.625  1.4645  2.2736 -0.0646
  658Sol     HW 5561   2.623   2.676   8.663 -2.5769  1.1409  0.7217
  658Sol     MW 5562   2.647   2.759   8.640  0.4757  0.2683 -0.1509
  659Sol     OW 5563   1.012   0.217   5.784 -0.4499  0.4669  0.2348
  659Sol     HW 5564   0.978   0.153   5.846  1.4844  0.9978  1.8960
  659Sol     HW 5565   0.969   0.299   5.808  1.1949  0.9272  1.6896
  659Sol     MW 5566   1.005   0.219   5.792  0.0211  0.4001  0.3482
  660Sol     OW 5567   2.844   1.795   2.648  0.4403  0.0339 -0.2188
  660Sol     HW 5568   2.889   1.720   2.610 -0.1611  0.8383 -2.6064
  660Sol     HW 5569   2.911   1.862   2.656  0.7220 -0.3675  0.8176
  660Sol     MW 5570   2.854   1.794   2.645  0.3702  0.0341 -0.3797
  661Sol     OW 5571   0.273   0.376   3.772  0.0573 -0.1921  0.0259
  661Sol     HW 5572   0.317   0.449   3.728 -1.6485 -0.2074 -1.8137
  661Sol     HW 5573   0.199   0.417   3.817  0.1971 -0.5458  0.5771
  661Sol     MW 5574   0.270   0.386   3.772 -0.1040  0.1229 -0.1848
  662Sol     OW 5575   0.201   2.903   4.725  0.1974  0.1029 -0.6848
  662Sol     HW 5576   0.203   2.945   4.639  3.2558 -0.4151 -0.9177
  662Sol     HW 5577   0.203   2.976   4.787 -3.2522  0.5254 -0.9827
  662Sol     MW 5578   0.201   2.913   4.723  0.0661 -0.3633  0.6633
  663Sol     OW 5579   3.108   0.589   6.301 -0.1695 -0.1829 -0.7088
  663Sol     HW 5580   3.141   0.593   6.212  0.7245 -0.3685 -0.3939
  663Sol     HW 5581   3.180   0.622   6.355 -1.6246  2.3793 -0.2713
  663Sol     MW 5582   3.117   0.592   6.298 -0.0171  0.0358 -0.1305
  664Sol     OW 5583   2.799   1.846   7.748 -0.6079 -0.1258 -0.0438
  664Sol     HW 5584   2.833   1.935   7.743 -2.2924  0.4854 -0.7744
  664Sol     HW 5585   2.774   1.835   7.840 -0.6976  0.2644 -0.0207
  664Sol     MW 5586   2.800   1.853   7.756  0.1764 -0.3285  0.5545
  665Sol     OW 5587   1.190   3.386   4.786 -0.4759  0.3312 -0.8447
  665Sol     HW 5588   1.125   3.321   4.813 -0.0970 -0.0701 -0.8909
  665Sol     HW 5589   1.264   3.372   4.845  0.1601 -0.2157 -1.7679
  665Sol     MW 5590   1.191   3.379   4.793 -0.0814  0.1397 -0.0832
  666Sol     OW 5591   1.410   3.357   4.940 -0.4506  0.3205 -0.0554
  666Sol     HW 5592   1.353   3.360   5.017  0.4319  1.9974  0.5628
  666Sol     HW 5593   1.473   3.428   4.954  1.2258 -0.9000 -1.1654
  666Sol     MW 5594   1.411   3.363   4.949  0.3331  0.0998  0.3930
  667Sol     OW 5595   1.951   1.368   9.698  0.3694  0.3219 -0.1852
  667Sol     HW 5596   1.879   1.415   9.739 -0.2820  0.3317 -1.3237
  667Sol     HW 5597   2.000   1.435   9.650  0.4858  0.1367 -0.3301
  667Sol     MW 5598   1.949   1.378   9.697 -0.0513 -0.4436  0.5311
  668Sol     OW 5599   2.825   0.739   4.291  0.2887 -0.5924 -0.1440
  668Sol     HW 5600   2.765   0.667   4.272 -2.0731  0.9184  1.3287
  668Sol     HW 5601   2.807   0.803   4.222  1.1282 -0.6681 -0.4363
  668Sol     MW 5602   2.818   0.739   4.283  0.2085 -0.6925 -0.6642
  669Sol     OW 5603   1.901   3.155   3.315  0.1942  0.2108  0.0083
  669Sol     HW 5604   1.880   3.224   3.378 -1.9049  1.4382 -1.9375
  669Sol     HW 5605   1.904   3.200   3.231  1.3753 -1.6556 -0.9784
  669Sol     MW 5606   1.900   3.165   3.313  0.4514 -0.0062  0.1422
  670Sol     OW 5607   2.282   3.157   3.362 -0.4707 -0.4110 -0.2724
  670Sol     HW 5608   2.245   3.153   3.450 -0.4096  1.5241 -0.1338
  670Sol     HW 5609   2.219   3.112   3.306 -1.9486  0.9354  0.3017
  670Sol     MW 5610   2.273   3.152   3.365 -0.1950 -0.4783  0.1761
  671Sol     OW 5611   1.452   3.338   1.945 -0.2216  0.2437  0.3199
  671Sol     HW 5612   1.438   3.250   1.909  0.2743 -0.5691  2.0183
  671Sol     HW 5613   1.494   3.387   1.874  0.5454 -1.2316 -0.2764
  671Sol     MW 5614   1.455   3.334   1.936 -0.5830 -0.4650  0.1498
  672Sol     OW 5615   2.202   3.408   5.084 -0.0824  0.3932 -0.1975
  672Sol     HW 5616   2.270   3.470   5.111 -0.8100  1.0891  0.0728
  672Sol     HW 5617   2.228   3.325   5.123 -0.1353  0.9726  1.1052
  672Sol     MW 5618   2.210   3.407   5.090 -1.3104  0.2115 -0.0923
  673Sol     OW 5619   2.327   0.824   3.695  0.0990  0.4502 -0.4113
  673Sol     HW 5620   2.275   0.843   3.774 -0.1677 -1.8393  0.0009
  673Sol     HW 5621   2.401   0.773   3.727  1.5133  1.9243 -1.2904
  673Sol     MW 5622   2.329   0.821   3.705 -0.2973  0.6216  0.3968
  674Sol     OW 5623   1.304   2.275   3.632 -0.5702  0.0171  0.2917
  674Sol     HW 5624   1.326   2.202   3.690  2.9694 -0.3582 -1.3616
  674Sol     HW 5625   1.327   2.354   3.682  0.5543 -0.2358  0.1956
  674Sol     MW 5626   1.308   2.276   3.642  0.1294 -0.3476 -0.4253
  675Sol     OW 5627   0.823   3.007   8.319  0.0449  0.7171  0.2899
  675Sol     HW 5628   0.912   3.039   8.332  0.4710 -0.2213 -0.3236
  675Sol     HW 5629   0.832   2.934   8.259 -1.0252 -0.0101  0.9993
  675Sol     MW 5630   0.832   3.003   8.315  0.6355  0.0021 -0.3762
  676Sol     OW 5631   3.093   0.478   9.306 -0.6662 -0.4081 -0.0337
  676Sol     HW 5632   3.164   0.478   9.370 -1.0201 -0.9451  0.3675
  676Sol     HW 5633   3.101   0.562   9.261  0.9377 -0.9284 -0.7823
  676Sol     MW 5634   3.100   0.485   9.307  0.0754  0.1257  0.1995
  677Sol     OW 5635   0.658   1.959   9.329 -0.6065 -0.7446  0.0927
  677Sol     HW 5636   0.700   1.888   9.281 -0.4475 -1.0593  0.6828
  677Sol     HW 5637   0.704   2.037   9.301  0.0750 -1.0338  0.3945
  677Sol     MW 5638   0.666   1.959   9.323 -0.1065 -0.1575 -0.0523
  678Sol     OW 5639   1.223   1.513   6.909 -0.2064  0.1773 -0.0199
  678Sol     HW 5640   1.181   1.574   6.970  0.1057  0.8915 -0.5069
  678Sol     HW 5641   1.209   1.553   6.823 -1.9526 -1.5651 -0.5859
  678Sol     MW 5642   1.218   1.522   6.907  0.1163  0.6521 -0.0632
  679Sol     OW 5643   0.571   1.345   6.763  0.2371  0.0290  0.0112
  679Sol     HW 5644   0.533   1.332   6.850  0.9573  0.7527  0.4401
  679Sol     HW 5645   0.634   1.417   6.775  0.2419  0.2196 -1.1318
  679Sol     MW 5646   0.573   1.351   6.772  0.8287 -0.1039 -0.6473
  680Sol     OW 5647   2.093   2.332   2.780  0.3502 -0.0797 -0.1522
  680Sol     HW 5648   2.133   2.245   2.784  2.9538  1.1385  1.6575
  680Sol     HW 5649   2.058   2.346   2.868  3.0936  2.0848  0.6767
  680Sol     MW 5650   2.093   2.326   2.789 -0.0909  0.5066 -0.4263
  681Sol     OW 5651   2.232   1.035   8.330 -0.0182 -0.0165 -0.4127
  681Sol     HW 5652   2.164   1.090   8.290  0.2147  1.0914  0.6841
  681Sol     HW 5653   2.312   1.087   8.322 -0.1809  0.7786  2.5278
  681Sol     MW 5654   2.233   1.045   8.325 -0.2111  0.7743  0.0575
  682Sol     OW 5655   1.405   1.346   3.250 -0.9622  0.1149  0.2186
  682Sol     HW 5656   1.391   1.309   3.163 -0.6585 -1.4438  0.8101
  682Sol     HW 5657   1.485   1.398   3.242 -2.1212  1.7708 -0.9550
  682Sol     MW 5658   1.411   1.348   3.242  0.2576 -0.0674 -0.1878
  683Sol     OW 5659   1.263   0.552   4.512 -0.3526 -0.3924  0.1040
  683Sol     HW 5660   1.291   0.501   4.437 -2.5239 -0.3498 -0.7409
  683Sol     HW 5661   1.272   0.643   4.484 -0.5308 -0.3669  0.1294
  683Sol     MW 5662   1.267   0.556   4.503  0.1664 -0.3832 -0.2799
  684Sol     OW 5663   1.516   2.969   8.848  0.0554  0.1393  0.3424
  684Sol     HW 5664   1.493   3.056   8.817  0.0364 -0.7576 -2.3072
  684Sol     HW 5665   1.591   2.983   8.906 -0.6487  2.0186  0.8286
  684Sol     MW 5666   1.521   2.978   8.850  0.0087  0.3188  0.0116
  685Sol     OW 5667   3.078   1.552   3.699 -0.0970  0.0331 -0.1507
  685Sol     HW 5668   3.116   1.561   3.787  1.2101 -0.0162 -0.7021
  685Sol     HW 5669   3.150   1.520   3.645 -1.6316 -2.7674 -0.6588
  685Sol     MW 5670   3.088   1.550   3.702 -0.6929 -0.1059  0.2978
  686Sol     OW 5671   0.521   1.660   2.259 -0.0231  0.4624 -0.0908
  686Sol     HW 5672   0.478   1.723   2.201  0.5754 -0.0933 -1.1421
  686Sol     HW 5673   0.607   1.647   2.221  0.9227  1.2135  1.7539
  686Sol     MW 5674   0.525   1.664   2.251  0.1563  0.2845 -0.4285
  687Sol     OW 5675   0.211   1.435   5.867 -0.1114 -0.4571  0.0390
  687Sol     HW 5676   0.118   1.456   5.855  0.4213  1.1164 -1.7149
  687Sol     HW 5677   0.240   1.494   5.937 -0.2468 -0.3956  0.0432
  687Sol     MW 5678   0.205   1.443   5.872  0.2877 -0.2160 -0.1217
  688Sol     OW 5679   0.518   0.261   1.822  0.3712  0.1771  0.3085
  688Sol     HW 5680   0.493   0.183   1.774  2.5072 -0.3732  0.0781
  688Sol     HW 5681   0.467   0.256   1.904 -1.3985 -0.1257 -0.7844
  688Sol     MW 5682   0.511   0.254   1.825  0.4176  0.2435 -0.1993
  689Sol     OW 5683   2.408   1.224   3.367  0.1770 -0.4087  0.2125
  689Sol     HW 5684   2.358   1.177   3.434 -0.3458  0.5227  0.4908
  689Sol     HW 5685   2.394   1.316   3.388  0.3312 -0.1165 -0.9521
  689Sol     MW 5686   2.402   1.228   3.375  0.0764 -0.0321  0.2373
  690Sol     OW 5687   1.837   2.726   5.752 -0.5372 -0.1048  0.4885
  690Sol     HW 5688   1.920   2.746   5.709 -0.5470 -1.4546 -0.1747
  690Sol     HW 5689   1.772   2.733   5.682 -1.0449  1.3513  1.0916
  690Sol     MW 5690   1.838   2.729   5.741  0.0274  0.1019  0.3137
  691Sol     OW 5691   1.306   0.602   5.763  0.5949  0.4770 -0.3979
  691Sol     HW 5692   1.263   0.564   5.840  0.4548  1.3902 -0.0230
  691Sol     HW 5693   1.354   0.677   5.797  2.9629 -0.8446 -0.7271
  691Sol     MW 5694   1.306   0.605   5.773 -0.3122  0.1397  0.1351
  692Sol     OW 5695   1.905   3.231   8.320 -0.1248  0.5095 -0.5589
  692Sol     HW 5696   1.921   3.217   8.227  1.0265 -0.9651 -0.1669
  692Sol     HW 5697   1.991   3.251   8.356 -0.0073 -1.9639  0.6610
  692Sol     MW 5698   1.914   3.232   8.315 -0.0475 -0.0117 -0.2384
  693Sol     OW 5699   2.796   0.477   9.324  0.0496  0.2470 -0.1374
  693Sol     HW 5700   2.892   0.482   9.329  0.0917 -0.9888  0.3104
  693Sol     HW 5701   2.766   0.506   9.410  0.1281 -2.0200  0.6856
  693Sol     MW 5702   2.802   0.480   9.332  0.7299  0.0874 -0.3879
  694Sol     OW 5703   0.903   1.191   5.346 -0.4137  0.4906  0.3932
  694Sol     HW 5704   0.907   1.270   5.293 -0.9571  0.7556  0.7404
  694Sol     HW 5705   0.845   1.132   5.298  0.8492 -0.1209 -0.4113
  694Sol     MW 5706   0.898   1.193   5.337 -0.0441  0.0582 -0.0388
  695Sol     OW 5707   2.105   1.653   6.051  0.2860  0.8839  0.5322
  695Sol     HW 5708   2.115   1.558   6.062  0.9092  1.0130  1.1288
  695Sol     HW 5709   2.178   1.677   5.993 -0.3885  0.8702 -0.3321
  695Sol     MW 5710   2.113   1.646   6.046  0.0799 -0.0602 -0.3968
  696Sol     OW 5711   0.713   1.643   8.445 -0.4272  0.0230  0.1670
  696Sol     HW 5712   0.703   1.548   8.441  0.3579 -0.0157 -1.1843
  696Sol     HW 5713   0.626   1.676   8.467 -1.1604 -0.8899 -1.3134
  696Sol     MW 5714   0.704   1.638   8.446  0.3184  0.8042 -0.4579
  697Sol     OW 5715   0.490   2.990   8.492  0.4553  0.7890 -0.0340
  697Sol     HW 5716   0.552   2.923   8.463  1.0337  1.1421  0.3610
  697Sol     HW 5717   0.417   2.940   8.530 -0.2768  0.3352 -1.9963
  697Sol     MW 5718   0.489   2.979   8.493 -0.0478 -0.2897  0.2157
  698Sol     OW 5719   2.448   1.498   1.377 -0.8455  0.3565 -0.1901
  698Sol     HW 5720   2.373   1.530   1.328 -1.1235 -2.3792 -1.6453
  698Sol     HW 5721   2.518   1.491   1.312 -0.3769 -0.5056  0.3983
  698Sol     MW 5722   2.447   1.500   1.367  0.0029 -0.1009  0.0406
  699Sol     OW 5723   0.385   2.404   9.480  0.0535  0.0896  0.2301
  699Sol     HW 5724   0.324   2.470   9.446  0.1490  0.0234 -0.0722
  699Sol     HW 5725   0.472   2.439   9.459  0.1065 -0.0976  0.1338
  699Sol     MW 5726   0.387   2.413   9.475 -0.7238  0.0236  0.7036
  700Sol     OW 5727   1.348   3.424   5.510 -0.9644  0.4484  0.1562
  700Sol     HW 5728   1.258   3.403   5.484 -0.1551 -1.0314 -1.5949
  700Sol     HW 5729   1.339   3.465   5.596 -3.2811  0.0326  0.1586
  700Sol     MW 5730   1.339   3.426   5.515 -0.1876  0.0510  0.2243
  701Sol     OW 5731   1.347   1.924   1.997  0.2840 -0.0931 -0.1150
  701Sol     HW 5732   1.418   1.940   1.935  0.1068 -0.7968 -0.5137
  701Sol     HW 5733   1.272   1.971   1.960  0.3145 -0.0779 -0.1582
  701Sol     MW 5734   1.346   1.929   1.988 -0.4281 -0.0200  0.7141
  702Sol     OW 5735   1.763   1.955   9.776 -0.2610 -0.1635  0.0670
  702Sol     HW 5736   1.672   1.958   9.806 -0.2185  1.6971  0.1061
  702Sol     HW 5737   1.767   2.019   9.705  1.0471 -0.0999  0.1835
  702Sol     MW 5738   1.755   1.961   9.773 -1.3498  0.4756 -0.2763
  703Sol     OW 5739   1.725   0.378   6.587  0.4910  0.0160 -0.0397
  703Sol     HW 5740   1.795   0.333   6.539 -0.3739 -2.0946  0.6063
  703Sol     HW 5741   1.739   0.471   6.569  4.0484 -0.2808  0.8489
  703Sol     MW 5742   1.733   0.382   6.581  0.5835  0.5135 -0.1313
  704Sol     OW 5743   1.979   1.091   3.297 -0.2919  0.1067  0.2027
  704Sol     HW 5744   1.978   1.122   3.388  0.6769 -0.5515  0.4473
  704Sol     HW 5745   2.055   1.034   3.292 -1.7247 -1.7875 -0.3954
  704Sol     MW 5746   1.986   1.089   3.305  0.0335 -0.0650 -0.1864
  705Sol     OW 5747   0.324   0.437   6.640  0.0633  0.0638 -0.5147
  705Sol     HW 5748   0.290   0.478   6.719 -2.0817 -3.1597  0.3308
  705Sol     HW 5749   0.288   0.489   6.568 -0.0208  1.5024  0.5542
  705Sol     MW 5750   0.318   0.446   6.640 -0.6627 -0.5942 -0.1464
  706Sol     OW 5751   2.504   1.200   4.749  0.3608 -0.4350  0.7158
  706Sol     HW 5752   2.548   1.118   4.769  0.6279 -0.6269 -0.6305
  706Sol     HW 5753   2.414   1.176   4.730  0.0885 -0.2438  1.7427
  706Sol     MW 5754   2.500   1.191   4.749 -0.1186 -0.1919  0.2413
  707Sol     OW 5755   3.287   1.868   7.886  0.0088  0.5761  0.1580
  707Sol     HW 5756   3.331   1.916   7.956  1.1752  1.2702 -1.0123
  707Sol     HW 5757   3.331   1.783   7.884 -0.1717  0.4766  0.4063
  707Sol     MW 5758   3.295   1.865   7.892  0.2502 -0.3830  0.4433
  708Sol     OW 5759   2.475   0.028   7.036 -0.5721 -0.3740 -0.0548
  708Sol     HW 5760   2.534  -0.044   7.012  0.1134  0.6938 -1.7581
  708Sol     HW 5761   2.394  -0.014   7.064 -0.3816 -1.8116 -1.5783
  708Sol     MW 5762   2.473   0.018   7.036  0.3813  0.3721 -0.2133
  709Sol     OW 5763   1.863   2.229   2.167  0.3142  0.3818 -0.0430
  709Sol     HW 5764   1.926   2.210   2.237  2.6359  1.1882 -1.8364
  709Sol     HW 5765   1.827   2.144   2.144  2.2936 -0.4060 -0.3712
  709Sol     MW 5766   1.865   2.220   2.171  0.0244 -0.3543 -0.3484
  710Sol     OW 5767   1.727   2.748   6.223  0.1827 -0.2027  0.3502
  710Sol     HW 5768   1.753   2.739   6.315  0.6916  0.3298  0.2639
  710Sol     HW 5769   1.635   2.772   6.226  0.1662 -0.3186  0.7195
  710Sol     MW 5770   1.721   2.749   6.231  0.0181 -0.3270 -0.1596
  711Sol     OW 5771   2.908   0.042   9.424 -0.2631 -0.0946 -0.2526
  711Sol     HW 5772   2.947   0.053   9.337 -0.1115 -1.8570 -0.4255
  711Sol     HW 5773   2.822   0.084   9.417 -0.1604 -0.0267 -1.1871
  711Sol     MW 5774   2.904   0.046   9.415 -0.0912 -0.2604 -0.3586
  712Sol     OW 5775   2.142   2.618   2.314  0.2968 -0.0773  0.3225
  712Sol     HW 5776   2.073   2.673   2.276  1.5805  0.8413 -0.7083
  712Sol     HW 5777   2.170   2.666   2.392 -1.3304 -1.2562  1.6887
  712Sol     MW 5778   2.138   2.627   2.318 -0.3158 -0.1700 -0.1151
  713Sol     OW 5779   2.238   3.298   9.596 -0.2507 -0.0013  0.1188
  713Sol     HW 5780   2.279   3.320   9.680  1.9843  0.0572 -0.9445
  713Sol     HW 5781   2.292   3.228   9.561  1.6947  3.0515 -3.3733
  713Sol     MW 5782   2.247   3.294   9.600 -0.4084  0.6706 -0.0628
  714Sol     OW 5783   1.653   1.178   3.945  0.4141 -0.1266 -0.5183
  714Sol     HW 5784   1.689   1.166   3.857 -0.6374 -0.3590 -0.9333
  714Sol     HW 5785   1.596   1.255   3.937 -2.1757 -2.0181 -0.8699
  714Sol     MW 5786   1.651   1.184   3.937 -0.6610  0.2224  0.1349
  715Sol     OW 5787   1.050   1.315   6.990 -0.5892  0.0245  0.1977
  715Sol     HW 5788   0.976   1.352   7.039 -0.8406 -1.3835  0.9165
  715Sol     HW 5789   1.103   1.391   6.966 -1.3951  0.9027  1.1373
  715Sol     MW 5790   1.048   1.325   6.993  0.0085  0.4871 -0.1422
  716Sol     OW 5791   1.253   0.417   6.375 -0.4980  0.0299  0.4205
  716Sol     HW 5792   1.342   0.392   6.351 -0.1892 -2.2874  3.6694
  716Sol     HW 5793   1.262   0.460   6.460 -2.3314  1.3228  0.0020
  716Sol     MW 5794   1.262   0.419   6.380  0.2825 -0.5542 -0.4589
  717Sol     OW 5795   2.179   0.279   7.717  0.1945 -0.0535  0.5011
  717Sol     HW 5796   2.224   0.363   7.714  0.0487  0.1540  3.0292
  717Sol     HW 5797   2.249   0.214   7.707  0.4001  0.3374 -0.6671
  717Sol     MW 5798   2.189   0.280   7.716  0.6708  0.5226 -0.2898
  718Sol     OW 5799   0.498   0.824   8.935  0.1112  0.4830  0.1621
  718Sol     HW 5800   0.431   0.884   8.904 -1.9147 -0.6732  2.1698
  718Sol     HW 5801   0.505   0.841   9.029  1.4603 -0.5375  0.2677
  718Sol     MW 5802   0.493   0.831   8.940  0.7899 -0.9875 -0.1154
  719Sol     OW 5803   1.547   3.048   8.333  0.4915  0.0338 -0.2630
  719Sol     HW 5804   1.576   2.964   8.368 -3.5414 -0.8918  1.2126
  719Sol     HW 5805   1.545   3.035   8.238 -1.4105 -2.0724  0.0263
  719Sol     MW 5806   1.549   3.039   8.328  0.0489  0.7820 -0.2102
  720Sol     OW 5807   1.357   1.281   7.970  0.4193 -0.5141  0.0205
  720Sol     HW 5808   1.396   1.230   8.041 -0.6920 -0.0743  0.9411
  720Sol     HW 5809   1.390   1.239   7.890 -0.2820 -2.5300  0.7632
  720Sol     MW 5810   1.364   1.273   7.969  0.4547  0.1409 -0.3713
  721Sol     OW 5811   1.611   0.015   3.855 -0.0141  0.5633 -0.9243
  721Sol     HW 5812   1.527   0.039   3.894  0.5396  1.2664 -0.1452
  721Sol     HW 5813   1.663  -0.018   3.928  1.3303  2.6795 -0.8931
  721Sol     MW 5814   1.609   0.014   3.865 -0.2588  0.1567 -0.0284
  722Sol     OW 5815   2.378   0.353   3.314  0.3865 -0.2805 -0.3178
  722Sol     HW 5816   2.393   0.323   3.404 -0.1061 -0.4740 -0.2953
  722Sol     HW 5817   2.335   0.438   3.324 -1.1317 -1.0179 -0.3410
  722Sol     MW 5818   2.375   0.358   3.323 -0.0825 -0.5239 -0.5551
  723Sol     OW 5819   1.564   2.197   4.334 -0.3457  0.1896  0.0822
  723Sol     HW 5820   1.612   2.175   4.414  0.0604  1.1155  0.0992
  723Sol     HW 5821   1.517   2.278   4.356 -1.8323 -0.6409  0.0284
  723Sol     MW 5822   1.564   2.202   4.343 -0.2131  0.2831  0.7636
  724Sol     OW 5823   0.862   0.912   4.421 -0.0567  0.5301 -0.3467
  724Sol     HW 5824   0.806   0.844   4.385 -0.1140  0.9895 -1.1321
  724Sol     HW 5825   0.803   0.967   4.473 -0.3554  1.0979 -1.2912
  724Sol     MW 5826   0.852   0.911   4.423 -0.0619  0.9426 -0.1100
  725Sol     OW 5827   2.571   2.047   8.999 -0.1005  0.1423 -0.2095
  725Sol     HW 5828   2.587   2.117   9.062 -0.9780  0.0028  0.1717
  725Sol     HW 5829   2.489   2.070   8.956 -0.5506 -0.7959  0.1243
  725Sol     MW 5830   2.565   2.055   9.001 -0.4050  0.3926 -0.2397
  726Sol     OW 5831   2.276   1.141   2.012 -0.0079 -0.0138 -0.2842
  726Sol     HW 5832   2.360   1.134   1.967  0.6640 -0.8560  1.0821
  726Sol     HW 5833   2.284   1.221   2.065 -0.2716  0.2014 -0.5670
  726Sol     MW 5834   2.284   1.148   2.013  0.5195 -0.3836  0.7225
  727Sol     OW 5835   2.516   2.651   2.845 -0.3597  0.1185  0.1207
  727Sol     HW 5836   2.460   2.648   2.922 -0.1803  0.0584  0.2490
  727Sol     HW 5837   2.589   2.592   2.866  0.1898  0.8586  0.2924
  727Sol     MW 5838   2.518   2.645   2.854 -0.2041  0.4009 -0.3609
  728Sol     OW 5839   0.609   1.600   7.532  0.3233  0.8572 -0.4433
  728Sol     HW 5840   0.546   1.623   7.464  0.4759  1.7894 -0.2737
  728Sol     HW 5841   0.578   1.515   7.565  1.3065 -0.5139 -2.9350
  728Sol     MW 5842   0.600   1.594   7.529 -0.7808 -0.3003 -0.3999
  729Sol     OW 5843   1.754   1.039   2.659 -0.0725 -0.2048 -0.2383
  729Sol     HW 5844   1.770   1.133   2.669  1.4136 -0.2766 -1.7075
  729Sol     HW 5845   1.682   1.033   2.597  0.1285 -0.0263 -0.4941
  729Sol     MW 5846   1.749   1.047   2.655  0.2285  0.5954 -0.2092
  730Sol     OW 5847   2.705   3.103   8.650  0.4621  0.2823 -0.1716
  730Sol     HW 5848   2.630   3.121   8.707 -0.0321 -3.5919  0.5391
  730Sol     HW 5849   2.778   3.088   8.710  0.8387  0.0742 -0.6767
  730Sol     MW 5850   2.705   3.103   8.661 -0.3961  0.2202  0.0523
  731Sol     OW 5851   2.109   2.378   6.306 -0.0899 -0.6712  0.7667
  731Sol     HW 5852   2.166   2.392   6.230 -0.5458  1.1649  0.7447
  731Sol     HW 5853   2.040   2.320   6.273  0.5516 -1.1037  0.1844
  731Sol     MW 5854   2.108   2.374   6.296 -0.6336  0.2043  0.3839
  732Sol     OW 5855   2.926   0.644   4.522 -0.3214 -0.1119  0.1801
  732Sol     HW 5856   2.906   0.638   4.429  0.9742 -0.3583 -0.0862
  732Sol     HW 5857   2.934   0.553   4.551 -1.9397 -0.0735  0.8108
  732Sol     MW 5858   2.925   0.635   4.516 -0.2121  0.3100  0.4505
  733Sol     OW 5859   0.181   1.419   9.722  0.0163 -0.1118 -0.3604
  733Sol     HW 5860   0.231   1.366   9.784 -1.2612 -0.7310  0.1445
  733Sol     HW 5861   0.103   1.447   9.771 -0.4840  0.2646 -1.3626
  733Sol     MW 5862   0.179   1.417   9.732 -0.1219 -0.1805 -0.4122
  734Sol     OW 5863   2.253   2.839   6.698 -0.5591  0.0127 -0.1794
  734Sol     HW 5864   2.324   2.790   6.656 -2.9493 -2.5497 -1.3916
  734Sol     HW 5865   2.246   2.919   6.646  0.4365 -0.3972 -0.9661
  734Sol     MW 5866   2.259   2.842   6.689  0.1965  0.2497 -0.2038
  735Sol     OW 5867   0.942   1.843   3.921 -0.1756 -0.0803  0.2795
  735Sol     HW 5868   0.910   1.757   3.896  2.9053 -1.0150 -0.7434
  735Sol     HW 5869   0.982   1.878   3.842 -1.5090  2.3988  0.6404
  735Sol     MW 5870   0.943   1.838   3.912  0.2367 -0.8647  0.2564
  736Sol     OW 5871   2.770   2.960   5.292 -0.0887 -0.2644 -0.3712
  736Sol     HW 5872   2.846   2.910   5.263 -0.9003 -1.3430 -0.6803
  736Sol     HW 5873   2.773   2.957   5.387  0.9612  0.7886 -0.3635
  736Sol     MW 5874   2.777   2.956   5.298  0.2758 -0.0326  0.8453
  737Sol     OW 5875   2.326   2.104   4.756 -0.4548 -0.2370 -0.2939
  737Sol     HW 5876   2.256   2.153   4.713 -0.8288 -2.0629 -1.8248
  737Sol     HW 5877   2.403   2.117   4.701 -0.4709 -1.0719 -0.5235
  737Sol     MW 5878   2.326   2.109   4.748  0.9122  0.4010 -0.2683
  738Sol     OW 5879   1.538   0.401   2.978  0.3010  0.3034  0.3692
  738Sol     HW 5880   1.563   0.488   3.008  0.7838  0.1024  0.5485
  738Sol     HW 5881   1.546   0.406   2.882  0.4288  0.4257  0.3859
  738Sol     MW 5882   1.541   0.410   2.972 -0.3369  0.0246  0.1424
  739Sol     OW 5883   0.570   1.576   7.103  0.1912 -0.6302  0.0929
  739Sol     HW 5884   0.600   1.487   7.118  0.3140 -0.2191  2.5028
  739Sol     HW 5885   0.625   1.630   7.160 -1.7259  0.6638  0.7702
  739Sol     MW 5886   0.578   1.573   7.110  0.3738  0.6680 -0.4149
  740Sol     OW 5887   2.817   3.007   2.008 -0.3898 -0.0163  0.6503
  740Sol     HW 5888   2.766   3.014   2.089 -1.5402  0.3840 -0.0961
  740Sol     HW 5889   2.774   2.937   1.958 -1.2269  1.3969 -0.6763
  740Sol     MW 5890   2.808   3.002   2.011 -0.2014  0.5425  0.6454
  741Sol     OW 5891   2.883   0.040   4.604  0.2500 -0.2343  0.3581
  741Sol     HW 5892   2.871   0.108   4.670  1.7616 -0.5241  0.9694
  741Sol     HW 5893   2.961  -0.008   4.633 -0.1820 -1.5706 -0.6165
  741Sol     MW 5894   2.889   0.042   4.612 -0.4722 -0.2388  0.4079
  742Sol     OW 5895   2.036   0.568   8.474  0.1933 -0.2990 -0.0425
  742Sol     HW 5896   2.084   0.643   8.439  0.7477  0.2855  1.9042
  742Sol     HW 5897   2.044   0.577   8.569 -2.7917 -0.8310  0.3152
  742Sol     MW 5898   2.041   0.576   8.479 -0.5617 -0.0508 -0.1927
  743Sol     OW 5899   3.307   2.962   2.131 -0.6836  0.5457 -0.2172
  743Sol     HW 5900   3.362   2.917   2.067  2.2554  0.8972  1.9105
  743Sol     HW 5901   3.225   2.980   2.086 -0.2278 -2.8579 -2.5484
  743Sol     MW 5902   3.305   2.959   2.122 -0.7932  0.0942  0.1021
  744Sol     OW 5903   0.548   2.486   3.458 -0.3616  0.0907 -0.2525
  744Sol     HW 5904   0.588   2.487   3.371 -2.8362 -1.0567 -1.4625
  744Sol     HW 5905   0.485   2.414   3.455 -1.6462  1.0457  1.9689
  744Sol     MW 5906   0.546   2.479   3.450  0.7368 -0.2326  0.2944
  745Sol     OW 5907   2.311   2.395   1.989 -0.2311  0.4180  0.3360
  745Sol     HW 5908   2.313   2.407   2.084  0.4228  0.8373  0.2687
  745Sol     HW 5909   2.380   2.331   1.971  1.4052  2.2607 -0.1277
  745Sol     MW 5910   2.317   2.390   1.996 -0.0592 -0.0329 -0.0026
  746Sol     OW 5911   2.480   0.933   7.166 -0.0957  0.0847  0.4050
  746Sol     HW 5912   2.460   0.856   7.113 -1.0721  0.5008  0.1815
  746Sol     HW 5913   2.576   0.934   7.169  0.0126  0.6440 -2.1940
  746Sol     MW 5914   2.487   0.926   7.162 -0.7281 -0.6150 -0.0802
  747Sol     OW 5915   1.226   2.584   4.262  0.1547  0.0102 -0.2078
  747Sol     HW 5916   1.223   2.679   4.272 -4.1071 -0.1409  1.0018
  747Sol     HW 5917   1.228   2.570   4.167  0.1619  1.2724 -0.4041
  747Sol     MW 5918   1.226   2.591   4.254 -0.2228 -0.5311  0.3547
  748Sol     OW 5919   2.681   2.762   6.599 -0.0362 -0.4415 -0.3007
  748Sol     HW 5920   2.697   2.679   6.645  0.4337  0.1572  0.6356
  748Sol     HW 5921   2.605   2.744   6.543  0.3793 -1.6511 -0.4960
  748Sol     MW 5922   2.675   2.753   6.598  0.1572 -0.4282  0.4840
  749Sol     OW 5923   2.430   0.436   2.387  0.3619  0.3339 -0.3867
  749Sol     HW 5924   2.405   0.345   2.401 -0.5170  0.2912 -2.1325
  749Sol     HW 5925   2.353   0.477   2.347  1.3448  1.4096 -1.2288
  749Sol     MW 5926   2.421   0.432   2.385 -0.2977 -0.1022  0.0759
  750Sol     OW 5927   2.330   1.728   8.855 -0.0143 -0.5003 -0.9273
  750Sol     HW 5928   2.281   1.787   8.911  0.3655  0.1339 -1.2565
  750Sol     HW 5929   2.270   1.706   8.784 -0.3265 -0.9135 -0.5361
  750Sol     MW 5930   2.320   1.731   8.854  0.1499  0.0868 -0.0513
  751Sol     OW 5931   2.153   0.956   8.572  0.5527  0.0852 -0.4557
  751Sol     HW 5932   2.179   0.987   8.485 -1.4674  1.1104 -0.7073
  751Sol     HW 5933   2.219   0.890   8.594  3.0286  2.1936 -1.3210
  751Sol     MW 5934   2.162   0.953   8.566 -0.3773  0.1204  0.3317
  752Sol     OW 5935   1.277   1.265   6.141 -0.1187  0.1431 -0.0553
  752Sol     HW 5936   1.265   1.292   6.050 -0.1944  0.5563  0.0766
  752Sol     HW 5937   1.202   1.208   6.160 -0.1814  0.1768 -0.2022
  752Sol     MW 5938   1.269   1.262   6.135 -0.1090 -0.4988 -0.0009
  753Sol     OW 5939   2.344   1.349   2.156 -0.1214  0.3748  0.6505
  753Sol     HW 5940   2.270   1.337   2.215 -0.7452  2.2064  0.2593
  753Sol     HW 5941   2.344   1.442   2.136  1.8067  0.2515  0.0002
  753Sol     MW 5942   2.337   1.356   2.160  0.0540  0.2073 -0.5266
  754Sol     OW 5943   0.801   0.620   2.732 -0.3452  0.0213 -0.5549
  754Sol     HW 5944   0.736   0.572   2.783 -1.5045  0.7741 -1.3012
  754Sol     HW 5945   0.828   0.693   2.788 -1.5283  0.7790 -0.9536
  754Sol     MW 5946   0.798   0.622   2.741  0.1096 -0.8590  0.0914
  755Sol     OW 5947   2.839   2.203   9.103  0.7855 -0.0086  0.1314
  755Sol     HW 5948   2.883   2.206   9.188  0.8612  0.9521  0.0618
  755Sol     HW 5949   2.866   2.119   9.065 -2.0263 -2.1329  2.5334
  755Sol     MW 5950   2.845   2.195   9.107  0.2427 -0.5709  0.3608
  756Sol     OW 5951   1.411   1.364   2.783 -0.0619  0.1106 -0.1835
  756Sol     HW 5952   1.438   1.331   2.868 -0.7149 -0.0075 -0.0151
  756Sol     HW 5953   1.342   1.427   2.803 -1.8072 -1.5794 -0.7444
  756Sol     MW 5954   1.407   1.367   2.793  0.0533 -0.3448 -0.1064
  757Sol     OW 5955   1.958   1.658   5.803  0.8191 -0.3024  0.1082
  757Sol     HW 5956   1.999   1.673   5.888  0.4358 -0.9701  0.4142
  757Sol     HW 5957   1.867   1.683   5.815  0.4133 -1.8325  0.3311
  757Sol     MW 5958   1.954   1.662   5.812  0.1582 -0.1078 -0.0562
  758Sol     OW 5959   1.738   0.810   8.096 -0.0763 -0.0819 -0.8185
  758Sol     HW 5960   1.688   0.729   8.102 -0.1340 -0.0992 -1.5023
  758Sol     HW 5961   1.749   0.824   8.002  0.9691  0.0612 -0.6776
  758Sol     MW 5962   1.734   0.804   8.088 -0.1485 -0.4559 -0.2344
  759Sol     OW 5963   1.905   0.150   7.254 -0.2956 -0.6385  0.7909
  759Sol     HW 5964   1.934   0.060   7.235 -0.4354 -0.5749  0.2544
  759Sol     HW 5965   1.812   0.150   7.232 -0.9009 -1.0626  3.3021
  759Sol     MW 5966   1.899   0.142   7.250 -0.1466 -0.1071  0.6626
  760Sol     OW 5967   1.810   3.388   4.707 -0.0118 -0.4135 -0.3386
  760Sol     HW 5968   1.788   3.382   4.614  1.8493 -1.2755 -0.7635
  760Sol     HW 5969   1.866   3.465   4.713  3.1710 -2.5837 -0.6985
  760Sol     MW 5970   1.813   3.394   4.699 -0.1110 -0.5699  0.4349
  761Sol     OW 5971   2.724   0.060   3.959  0.0807  0.5195  0.4874
  761Sol     HW 5972   2.675   0.031   3.882  1.4248  1.3382 -0.7160
  761Sol     HW 5973   2.657   0.077   4.025 -1.3433  2.3512 -1.3613
  761Sol     MW 5974   2.714   0.059   3.958  0.3958 -0.3391 -0.3938
  762Sol     OW 5975   0.457   2.676   5.862 -0.5326 -0.2079 -0.1139
  762Sol     HW 5976   0.487   2.763   5.836 -1.4356 -0.1318 -0.8822
  762Sol     HW 5977   0.437   2.632   5.780  2.0677 -1.9480  0.1174
  762Sol     MW 5978   0.458   2.680   5.853 -0.8393 -0.3478  0.3830
  763Sol     OW 5979   2.158   0.847   7.708  0.1719  0.4177 -0.3040
  763Sol     HW 5980   2.173   0.765   7.660  0.2823 -0.1156  0.6375
  763Sol     HW 5981   2.088   0.827   7.770  0.4336  0.9374  0.1675
  763Sol     MW 5982   2.153   0.838   7.709  0.0428 -0.0946  0.2450
  764Sol     OW 5983   1.924   3.189   7.308 -0.0130 -0.4099  0.4211
  764Sol     HW 5984   1.903   3.106   7.264 -0.5273 -0.7331  1.2595
  764Sol     HW 5985   1.839   3.223   7.337  0.2042  0.3827  0.1276
  764Sol     MW 5986   1.915   3.184   7.307  0.0773  0.5141  0.0886
  765Sol     OW 5987   3.262   0.997   1.739  0.0364  0.1931 -0.4618
  765Sol     HW 5988   3.250   0.903   1.754 -0.1084  0.1406 -0.8844
  765Sol     HW 5989   3.174   1.031   1.727  0.1696  0.1080 -1.8413
  765Sol     MW 5990   3.253   0.991   1.739 -0.0167 -0.2471  0.5121
  766Sol     OW 5991   1.250   0.969   3.472 -0.0649  0.2152 -0.2766
  766Sol     HW 5992   1.258   0.959   3.567 -0.7174 -2.1750 -0.4285
  766Sol     HW 5993   1.192   1.045   3.460 -0.9110 -0.1633  1.2682
  766Sol     MW 5994   1.245   0.975   3.479  0.3519  0.8081 -0.7956
  767Sol     OW 5995   1.236   2.587   3.989 -0.2930  0.9232 -0.1043
  767Sol     HW 5996   1.278   2.550   3.911 -1.7890 -0.5629 -0.2309
  767Sol     HW 5997   1.143   2.574   3.975 -0.5627  0.1848  2.1289
  767Sol     MW 5998   1.232   2.582   3.981 -0.3840 -0.4327  0.8469
  768Sol     OW 5999   0.618   2.230   9.035  0.6287 -0.2170 -0.1019
  768Sol     HW 6000   0.557   2.303   9.040  0.7177 -0.1409 -0.1137
  768Sol     HW 6001   0.566   2.153   9.055  0.5404 -0.1464 -0.0622
  768Sol     MW 6002   0.608   2.230   9.037 -0.1756  0.2939  0.2779
  769Sol     OW 6003   0.525   0.769   6.139 -0.0224 -0.2079  0.3257
  769Sol     HW 6004   0.497   0.701   6.079  3.3396 -0.2072 -1.3601
  769Sol     HW 6005   0.467   0.843   6.121 -1.6560 -1.5384 -0.0202
  769Sol     MW 6006   0.517   0.770   6.132  0.0283  0.0690  0.4683
  770Sol     OW 6007   2.927   3.266   1.387 -0.0158  0.5488  0.6726
  770Sol     HW 6008   3.003   3.272   1.445  0.4909  1.5969 -0.0667
  770Sol     HW 6009   2.888   3.353   1.391 -0.8390  0.1857  0.5907
  770Sol     MW 6010   2.930   3.275   1.393 -0.6056 -0.0459  0.1591
  771Sol     OW 6011   3.116   1.935   5.353 -0.1870  0.3362  0.0401
  771Sol     HW 6012   3.202   1.894   5.348 -0.6682 -0.7579  0.5488
  771Sol     HW 6013   3.133   2.022   5.390  0.8960  0.7975 -1.4968
  771Sol     MW 6014   3.125   1.939   5.356 -0.1400 -0.1585  0.1004
  772Sol     OW 6015   2.733   2.594   9.197  0.3459 -0.0114 -0.2954
  772Sol     HW 6016   2.688   2.671   9.163 -1.4662 -0.9063  0.0542
  772Sol     HW 6017   2.673   2.522   9.183  2.0336 -1.3907 -0.6173
  772Sol     MW 6018   2.724   2.595   9.193 -0.2742 -0.2266 -0.2190
  773Sol     OW 6019   2.270   0.326   1.556 -0.2830  0.4200  0.6448
  773Sol     HW 6020   2.294   0.419   1.555 -0.1461  0.4353 -3.2966
  773Sol     HW 6021   2.355   0.281   1.556 -0.2519  0.3899 -2.3167
  773Sol     MW 6022   2.280   0.330   1.556 -1.0499 -0.4194  0.0296
  774Sol     OW 6023   0.531   1.508   3.139  0.3664  0.3969 -0.1006
  774Sol     HW 6024   0.547   1.485   3.048  0.9667  2.5016 -0.5502
  774Sol     HW 6025   0.596   1.458   3.188  0.5140 -0.1887 -0.8822
  774Sol     MW 6026   0.538   1.502   3.135  0.3991  0.3117 -0.5985
  775Sol     OW 6027   0.607   3.235   7.659  0.5741 -0.3750 -0.2364
  775Sol     HW 6028   0.524   3.189   7.644  0.3120 -0.3669  1.1260
  775Sol     HW 6029   0.674   3.172   7.631  0.1060 -0.0713 -2.1252
  775Sol     MW 6030   0.605   3.225   7.655 -0.0785 -0.4114 -0.1478
  776Sol     OW 6031   0.376   1.117   8.336  0.0472  1.1251 -0.4680
  776Sol     HW 6032   0.380   1.025   8.309 -0.3241  1.3182 -1.2082
  776Sol     HW 6033   0.287   1.144   8.314 -0.3527  1.2143  1.2499
  776Sol     MW 6034   0.369   1.111   8.331 -0.2013 -0.3823  0.2449
  777Sol     OW 6035   0.892   0.494   6.448  0.2650 -0.4702 -0.2111
  777Sol     HW 6036   0.803   0.526   6.468 -0.2008 -1.0034 -1.4124
  777Sol     HW 6037   0.949   0.548   6.502 -0.7033  0.7092 -0.3509
  777Sol     MW 6038   0.889   0.502   6.455 -0.5427  0.2310 -0.5591
  778Sol     OW 6039   0.267   3.272   4.347 -0.0512 -0.4505 -0.0518
  778Sol     HW 6040   0.290   3.274   4.254  0.0222 -0.8037 -0.0411
  778Sol     HW 6041   0.212   3.349   4.360 -1.6709 -1.4604 -0.7993
  778Sol     MW 6042   0.264   3.279   4.340  0.4148  0.4582 -0.1084
  779Sol     OW 6043   3.034   1.742   7.449  0.2179 -0.2586  0.2902
  779Sol     HW 6044   3.128   1.751   7.434  0.2356  0.2215  0.6557
  779Sol     HW 6045   3.002   1.690   7.375  0.8950 -1.0806  0.5685
  779Sol     MW 6046   3.039   1.739   7.441  0.4949  0.1223 -0.6583
  780Sol     OW 6047   3.283   1.808   1.516 -0.5003  0.1253 -0.0955
  780Sol     HW 6048   3.275   1.871   1.444  0.9705  2.0268  1.3415
  780Sol     HW 6049   3.207   1.825   1.571  0.0247  0.8520  0.4210
  780Sol     MW 6050   3.276   1.815   1.514  0.6727  0.5780 -0.3228
  781Sol     OW 6051   0.014   0.594   2.145 -0.0955 -0.1364 -0.7955
  781Sol     HW 6052  -0.074   0.578   2.109 -0.7877 -0.1122  0.8294
  781Sol     HW 6053   0.031   0.686   2.126 -1.7240  0.7005  1.5105
  781Sol     MW 6054   0.007   0.601   2.140 -0.7188  0.6716  0.3773
  782Sol     OW 6055   0.822   1.115   1.406 -0.7983  0.0764 -0.1239
  782Sol     HW 6056   0.836   1.188   1.467 -1.9255 -0.4170  0.7365
  782Sol     HW 6057   0.826   1.037   1.461 -0.6522 -0.4520 -0.8757
  782Sol     MW 6058   0.824   1.115   1.417 -0.1434  0.1309  1.0704
  783Sol     OW 6059   0.421   1.183   4.716 -0.1055 -0.0442 -0.3285
  783Sol     HW 6060   0.407   1.130   4.795 -2.5748  1.4310  0.2925
  783Sol     HW 6061   0.345   1.165   4.661  1.2576 -0.5144 -2.0684
  783Sol     MW 6062   0.413   1.177   4.718 -1.0464  0.7278  0.3875
  784Sol     OW 6063   2.921   2.337   9.514  0.4234 -0.3248 -0.3285
  784Sol     HW 6064   2.930   2.275   9.587  2.1017  2.2744  1.7776
  784Sol     HW 6065   2.965   2.295   9.440 -0.9881 -2.8590  0.2172
  784Sol     MW 6066   2.926   2.328   9.514 -0.3515  0.1422  0.0774
  785Sol     OW 6067   1.109   3.293   5.450  0.1063 -0.3018  0.7928
  785Sol     HW 6068   1.067   3.267   5.368  2.4795 -1.0621 -0.2201
  785Sol     HW 6069   1.065   3.241   5.517 -2.5151  1.0299  0.1719
  785Sol     MW 6070   1.101   3.286   5.449 -0.0284  0.4205 -0.3979
  786Sol     OW 6071   3.139   2.447   9.053  0.0102 -0.0103  0.4977
  786Sol     HW 6072   3.086   2.526   9.056 -0.2397 -0.1758  0.4074
  786Sol     HW 6073   3.086   2.383   9.005 -0.5913 -0.8605  2.2823
  786Sol     MW 6074   3.130   2.448   9.049 -0.3306 -0.1792 -0.3168
  787Sol     OW 6075   2.433   2.179   9.562  0.1901  0.3095  0.4407
  787Sol     HW 6076   2.489   2.255   9.574  1.2098 -0.3570 -0.0125
  787Sol     HW 6077   2.436   2.134   9.647  1.1250 -0.2387  0.1229
  787Sol     MW 6078   2.438   2.182   9.571 -0.0326 -0.4513 -0.0080
  788Sol     OW 6079   1.193   1.737   4.619 -0.5451 -0.5460 -0.0295
  788Sol     HW 6080   1.220   1.729   4.527 -0.6146 -0.1176 -0.0862
  788Sol     HW 6081   1.217   1.826   4.644  1.1263 -1.2306  0.8965
  788Sol     MW 6082   1.198   1.744   4.613 -0.0084 -0.0204  0.6038
  789Sol     OW 6083   2.423   1.563   3.748  0.0241 -0.6331 -0.3952
  789Sol     HW 6084   2.377   1.590   3.827 -0.3009 -0.4093 -0.6564
  789Sol     HW 6085   2.516   1.563   3.773 -0.1545 -1.7325  0.3191
  789Sol     MW 6086   2.428   1.566   3.757 -0.6001 -0.2637  0.8507
  790Sol     OW 6087   2.302   0.625   8.078 -0.2664 -0.6854 -0.1173
  790Sol     HW 6088   2.312   0.533   8.100  0.7339 -0.7235 -0.6841
  790Sol     HW 6089   2.208   0.639   8.073 -0.4378 -1.4632  0.8395
  790Sol     MW 6090   2.295   0.618   8.079  0.2880  0.2303 -0.1506
  791Sol     OW 6091   2.805   0.055   9.137  0.2024  0.1487  0.4530
  791Sol     HW 6092   2.809   0.116   9.064 -0.8964 -0.4653 -0.1361
  791Sol     HW 6093   2.792   0.110   9.214  1.2161  0.7881  0.1838
  791Sol     MW 6094   2.804   0.065   9.137  0.1338 -0.6264  0.3596
  792Sol     OW 6095   2.893   0.866   5.408  0.0610 -0.2464  0.0675
  792Sol     HW 6096   2.881   0.928   5.336 -1.1471  1.8333  1.9823
  792Sol     HW 6097   2.980   0.829   5.395  0.3161  0.9654 -1.7984
  792Sol     MW 6098   2.899   0.868   5.401 -0.2203 -0.2652 -0.2331
  793Sol     OW 6099   1.492   0.199   8.911 -0.5218  0.1322  0.1535
  793Sol     HW 6100   1.579   0.219   8.947  0.2351 -0.7903 -1.1292
  793Sol     HW 6101   1.446   0.158   8.984 -0.3705  1.8748  1.2598
  793Sol     MW 6102   1.496   0.197   8.921 -0.5321  0.1084 -0.4201
  794Sol     OW 6103   2.781   2.964   8.411 -0.0961 -0.0375  0.0146
  794Sol     HW 6104   2.766   3.040   8.355 -1.2495 -0.2809 -0.0194
  794Sol     HW 6105   2.743   2.988   8.496 -0.3890 -0.5344  0.0280
  794Sol     MW 6106   2.777   2.973   8.414 -0.7062  0.5548  0.4371
  795Sol     OW 6107   2.558   1.210   1.456  0.2603 -0.2058  0.4892
  795Sol     HW 6108   2.512   1.206   1.373  1.4343 -1.1041 -0.1346
  795Sol     HW 6109   2.557   1.120   1.489  2.6209 -0.5040 -0.1387
  795Sol     MW 6110   2.554   1.201   1.452 -0.4878 -0.1616  0.8042
  796Sol     OW 6111   1.357   2.380   4.390  0.0058  0.2626 -0.0099
  796Sol     HW 6112   1.299   2.440   4.343 -1.3225 -1.4025 -0.5529
  796Sol     HW 6113   1.298   2.317   4.431  1.4017 -1.5063 -0.6287
  796Sol     MW 6114   1.346   2.380   4.389  0.5270  0.3705  0.4130
  797Sol     OW 6115   0.749   2.053   2.406 -0.3047  0.1186  0.3201
  797Sol     HW 6116   0.706   1.989   2.462 -0.7087 -1.6199 -1.8794
  797Sol     HW 6117   0.686   2.070   2.336  1.1562  0.2708 -1.0021
  797Sol     MW 6118   0.740   2.049   2.405  0.2357 -0.1224  0.4481
  798Sol     OW 6119   0.248   0.097   7.082  0.2489  0.1970  0.5127
  798Sol     HW 6120   0.314   0.132   7.022 -0.4854 -0.4696 -0.7124
  798Sol     HW 6121   0.194   0.173   7.105 -0.0414  0.2856 -0.4428
  798Sol     MW 6122   0.249   0.107   7.079  0.6823  0.2501  0.7141
  799Sol     OW 6123   3.158   1.216   6.847 -0.5104  0.1059  0.1163
  799Sol     HW 6124   3.160   1.305   6.882  0.9404  0.4332 -0.7603
  799Sol     HW 6125   3.199   1.223   6.761  0.5686 -1.6043  0.4654
  799Sol     MW 6126   3.162   1.225   6.843  0.1833 -0.1224 -0.0910
  800Sol     OW 6127   0.192   3.069   8.647  0.3465 -0.2510  0.7943
  800Sol     HW 6128   0.217   3.024   8.567  1.3362  3.6852 -1.2348
  800Sol     HW 6129   0.109   3.112   8.626 -0.3780 -0.7657  2.5157
  800Sol     MW 6130   0.187   3.069   8.638 -0.0598  0.7418  0.3142
  801Sol     OW 6131   0.918   2.508   7.796  0.6106 -0.3014  0.1975
  801Sol     HW 6132   0.972   2.429   7.794  1.9292  0.6215 -1.5399
  801Sol     HW 6133   0.847   2.491   7.733  0.9111 -0.0876 -0.1982
  801Sol     MW 6134   0.916   2.500   7.790  0.0759  0.0968  0.2277
  802Sol     OW 6135   2.996   1.393   1.383  0.1263  0.2653  0.2242
  802Sol     HW 6136   2.962   1.314   1.426 -1.3214 -0.0101 -1.3648
  802Sol     HW 6137   2.936   1.462   1.409 -0.4207  0.2110 -0.8588
  802Sol     MW 6138   2.988   1.392   1.389 -0.2147 -0.3953  0.1698
  803Sol     OW 6139   2.314   1.659   4.979 -0.4047  0.4781 -0.9326
  803Sol     HW 6140   2.317   1.726   4.911  0.5946 -0.5954 -1.9730
  803Sol     HW 6141   2.345   1.703   5.058  0.3948  1.2088 -1.6473
  803Sol     MW 6142   2.317   1.669   4.980  0.2011 -0.3217  0.1279
  804Sol     OW 6143   3.148   1.271   8.349  0.1355 -0.6278  0.4332
  804Sol     HW 6144   3.157   1.339   8.283  1.0322 -0.5578  0.6223
  804Sol     HW 6145   3.149   1.189   8.299 -2.0094 -0.4781  0.1078
  804Sol     MW 6146   3.149   1.270   8.339  0.2097 -0.3819  0.1287
  805Sol     OW 6147   1.304   0.118   9.100  0.4494  0.5761  0.1559
  805Sol     HW 6148   1.351   0.046   9.142  0.1297  0.3276  0.0913
  805Sol     HW 6149   1.268   0.079   9.020 -0.3574  0.6161  0.5002
  805Sol     MW 6150   1.305   0.108   9.096  0.1571  0.8472  0.1528
  806Sol     OW 6151   2.250   0.782   9.467  0.2793  0.1519 -0.2695
  806Sol     HW 6152   2.235   0.837   9.389 -1.0063  0.6914  0.3404
  806Sol     HW 6153   2.259   0.694   9.432  2.0154  0.6960 -1.2314
  806Sol     MW 6154   2.249   0.779   9.456 -0.1564 -0.7145 -0.4420
  807Sol     OW 6155   2.886   1.725   9.848  0.4763 -0.3650 -0.3588
  807Sol     HW 6156   2.945   1.780   9.797 -0.2013  1.0179  0.3161
  807Sol     HW 6157   2.798   1.748   9.818 -0.0335  1.5365  2.3540
  807Sol     MW 6158   2.883   1.732   9.841  0.2735 -0.1789  0.9993
  808Sol     OW 6159   1.554   1.800   9.651  0.2706 -0.2217  0.0405
  808Sol     HW 6160   1.634   1.839   9.684  1.1414 -0.6637 -1.5246
  808Sol     HW 6161   1.570   1.785   9.558 -1.5043 -0.6012 -0.2309
  808Sol     MW 6162   1.562   1.802   9.645  0.6767  0.1815  0.1201
  809Sol     OW 6163   2.448   3.056   2.577  0.0930  0.4565  0.2388
  809Sol     HW 6164   2.486   3.131   2.532 -1.6043  0.9012 -0.4614
  809Sol     HW 6165   2.454   3.079   2.670 -0.3994  1.4470  0.0291
  809Sol     MW 6166   2.452   3.065   2.582  0.3639  0.1041  0.1663
  810Sol     OW 6167   3.040   2.122   6.487  0.3379 -0.4330 -0.3290
  810Sol     HW 6168   3.119   2.145   6.535  0.0787  1.7801 -0.8780
  810Sol     HW 6169   2.968   2.153   6.543 -0.0571 -0.4261 -0.8351
  810Sol     MW 6170   3.040   2.127   6.496 -0.3431 -0.7073  0.2879
  811Sol     OW 6171   1.780   0.203   1.409  0.3444 -0.7689  0.2429
  811Sol     HW 6172   1.723   0.144   1.459  0.4013  0.7092  2.1298
  811Sol     HW 6173   1.721   0.253   1.354 -0.0392 -0.3744  1.0004
  811Sol     MW 6174   1.769   0.202   1.409  0.0556  0.1127 -0.2108
  812Sol     OW 6175   2.193   2.169   4.191 -0.4154  0.6959 -0.3084
  812Sol     HW 6176   2.288   2.175   4.180 -0.5242  0.5524 -1.3395
  812Sol     HW 6177   2.174   2.228   4.263  0.3825  1.1670 -0.4767
  812Sol     MW 6178   2.200   2.174   4.197  0.1425 -0.1220 -0.0238
  813Sol     OW 6179   2.649   1.498   1.824 -0.1090 -0.0373 -0.2926
  813Sol     HW 6180   2.664   1.564   1.756 -0.2420  0.4660  0.1675
  813Sol     HW 6181   2.573   1.449   1.793 -1.7252  1.7707  0.6811
  813Sol     MW 6182   2.644   1.500   1.815 -0.5043 -0.0364 -0.1542
  814Sol     OW 6183   0.320   1.535   5.263  0.0141 -0.6746 -0.4211
  814Sol     HW 6184   0.409   1.562   5.242 -0.5800  1.4149 -0.3824
  814Sol     HW 6185   0.283   1.609   5.310 -1.5699 -1.7448  0.0622
  814Sol     MW 6186   0.325   1.544   5.265  0.0938 -0.0204 -1.1196
  815Sol     OW 6187   0.318   2.752   8.562 -0.3998  0.0167  0.1756
  815Sol     HW 6188   0.290   2.677   8.616  1.3649 -1.0933 -0.4103
  815Sol     HW 6189   0.271   2.741   8.480 -2.2799  1.1208  1.0716
  815Sol     MW 6190   0.311   2.744   8.560 -0.0867  0.0272 -0.0783
  816Sol     OW 6191   2.201   1.348   6.023 -0.1690  0.4255  0.4553
  816Sol     HW 6192   2.278   1.352   6.080  0.3760 -0.2987 -0.2200
  816Sol     HW 6193   2.219   1.276   5.962  0.2913  2.6802 -2.1710
  816Sol     MW 6194   2.209   1.342   6.023  0.4361 -0.6919 -0.4470
  817Sol     OW 6195   1.039   0.721   3.709  0.2572  0.4429  0.8167
  817Sol     HW 6196   1.016   0.773   3.632  1.1376  1.2737  1.1087
  817Sol     HW 6197   0.961   0.668   3.726  0.4318 -0.5936 -1.3234
  817Sol     MW 6198   1.030   0.721   3.704 -0.1651 -0.0922 -0.1696
  818Sol     OW 6199   2.911   2.530   4.831 -0.2343  0.0744  0.0194
  818Sol     HW 6200   2.954   2.609   4.863 -0.9044  0.7516 -0.7171
  818Sol     HW 6201   2.923   2.466   4.901  2.5786  0.0217 -0.4483
  818Sol     MW 6202   2.916   2.531   4.840  0.4164  0.3988  1.0656
  819Sol     OW 6203   1.658   1.813   1.545 -0.2077  0.1078  0.0243
  819Sol     HW 6204   1.749   1.838   1.526 -0.3173  0.2933 -0.2711
  819Sol     HW 6205   1.660   1.718   1.549  0.2452  0.1606  1.3286
  819Sol     MW 6206   1.667   1.807   1.543 -0.6844 -0.1588 -0.1728
  820Sol     OW 6207   2.602   0.604   8.320  0.1658 -0.0885  0.2755
  820Sol     HW 6208   2.676   0.572   8.371  0.2352 -0.1224  0.1534
  820Sol     HW 6209   2.594   0.697   8.344  1.9223  0.6060 -1.7198
  820Sol     MW 6210   2.608   0.610   8.327 -0.2235 -0.1285  0.0653
  821Sol     OW 6211   1.289   1.093   5.209  0.0309 -0.0234 -0.3068
  821Sol     HW 6212   1.230   1.161   5.241 -0.6042  0.0401 -1.6027
  821Sol     HW 6213   1.352   1.139   5.154 -0.1393 -0.4171 -0.8353
  821Sol     MW 6214   1.289   1.103   5.207 -0.3469  0.4361  0.3458
  822Sol     OW 6215   0.682   1.349   8.406  0.4342  0.0118 -0.0691
  822Sol     HW 6216   0.752   1.283   8.413 -0.8370 -1.4245 -0.5262
  822Sol     HW 6217   0.654   1.345   8.315 -2.4608 -1.8225  0.8215
  822Sol     MW 6218   0.686   1.342   8.399 -0.0115  0.2030 -0.6732
  823Sol     OW 6219   1.806   1.559   9.485 -0.6063  0.4115  0.2980
  823Sol     HW 6220   1.785   1.595   9.571  0.9063  2.4992 -0.1691
  823Sol     HW 6221   1.901   1.547   9.486 -0.2844  2.4519 -1.7854
  823Sol     MW 6222   1.813   1.561   9.492  0.2995  0.0431  0.2985
  824Sol     OW 6223   0.111   0.727   7.248  0.0256  0.2279 -0.3318
  824Sol     HW 6224   0.043   0.704   7.311  0.3750  0.7255  0.2391
  824Sol     HW 6225   0.094   0.671   7.173 -0.1806 -0.6328  0.3447
  824Sol     MW 6226   0.103   0.720   7.247  0.3533  0.2933 -0.5319
  825Sol     OW 6227   1.734   2.373   5.570 -0.1685 -0.8373 -0.2722
  825Sol     HW 6228   1.803   2.429   5.608 -0.0955 -1.2356  0.1818
  825Sol     HW 6229   1.653   2.410   5.604 -0.1585 -0.6212 -0.4773
  825Sol     MW 6230   1.733   2.382   5.577 -0.7709  0.7662  0.1436
  826Sol     OW 6231   1.193   2.881   5.640 -0.0624  0.2797 -0.9342
  826Sol     HW 6232   1.285   2.852   5.635  0.4932  1.4455  1.6132
  826Sol     HW 6233   1.178   2.927   5.557  1.0602 -1.5002 -2.1714
  826Sol     MW 6234   1.200   2.883   5.632  0.3517  0.2616  0.4360
  827Sol     OW 6235   0.776   1.024   4.824  0.0479 -0.0093 -0.4335
  827Sol     HW 6236   0.744   1.053   4.739  1.4901  0.2728 -0.9040
  827Sol     HW 6237   0.712   0.960   4.854 -1.3795  1.1561 -0.9381
  827Sol     MW 6238   0.768   1.021   4.819 -0.4740  0.0056  0.3544
  828Sol     OW 6239   3.151   3.229   3.801  0.1339  0.2470 -0.1598
  828Sol     HW 6240   3.165   3.167   3.729 -0.3581 -0.7702  0.6008
  828Sol     HW 6241   3.063   3.209   3.833 -0.9198  2.8083 -1.2959
  828Sol     MW 6242   3.144   3.222   3.797  0.1323 -0.9134  0.2763
  829Sol     OW 6243   0.268   1.853   5.141 -0.5778  0.0792 -0.0779
  829Sol     HW 6244   0.212   1.821   5.070  0.2762  1.5202 -1.4507
  829Sol     HW 6245   0.347   1.884   5.097  0.3080  0.2799  1.5963
  829Sol     MW 6246   0.270   1.853   5.131 -0.2713  0.1325 -0.4994
  830Sol     OW 6247   1.778   3.228   6.936 -0.2237 -0.0168  0.2460
  830Sol     HW 6248   1.836   3.264   7.003  0.6536  1.7207 -1.3655
  830Sol     HW 6249   1.711   3.296   6.925 -0.4759 -0.3778 -0.4517
  830Sol     MW 6250   1.777   3.238   6.941  0.7878 -0.0306  0.7160
  831Sol     OW 6251   3.214   2.697   2.575 -0.1026 -0.2916 -0.9461
  831Sol     HW 6252   3.290   2.747   2.547 -0.3787  0.9830  0.4703
  831Sol     HW 6253   3.142   2.730   2.522 -0.8962  3.0730  2.0021
  831Sol     MW 6254   3.214   2.704   2.568  0.0111 -0.3861  0.0539
  832Sol     OW 6255   1.054   0.410   9.725  0.5115  0.4621 -0.2052
  832Sol     HW 6256   1.068   0.470   9.652  0.8625  2.1769  1.2457
  832Sol     HW 6257   0.963   0.425   9.751 -0.1905 -1.4737 -1.4410
  832Sol     MW 6258   1.047   0.417   9.721 -0.1170  0.0122 -0.3756
  833Sol     OW 6259   1.691   2.048   3.862 -0.5319 -0.1402  0.0075
  833Sol     HW 6260   1.672   2.102   3.786 -1.7897  0.3080  0.6123
  833Sol     HW 6261   1.691   1.958   3.829  0.8341  0.1831 -0.8666
  833Sol     MW 6262   1.689   2.045   3.853 -0.1262  0.3918 -0.0440
  834Sol     OW 6263   0.022   0.690   3.340  0.4386  0.1696  0.0841
  834Sol     HW 6264   0.016   0.658   3.430 -0.5164 -2.5920 -0.9117
  834Sol     HW 6265   0.061   0.618   3.291  0.1523  1.3094 -1.8915
  834Sol     MW 6266   0.025   0.681   3.343  0.5225 -0.0799  0.0483
  835Sol     OW 6267   0.561   1.417   2.883  0.0505 -0.5977  0.4966
  835Sol     HW 6268   0.592   1.459   2.802  1.0707 -0.9805  0.6770
  835Sol     HW 6269   0.636   1.366   2.913 -1.2505 -2.7574  0.1514
  835Sol     MW 6270   0.571   1.416   2.878 -0.2947  0.3428  0.7457
  836Sol     OW 6271   1.125   0.227   9.300 -0.2450  0.1167 -0.0874
  836Sol     HW 6272   1.088   0.306   9.261  1.6825  0.3325 -1.5556
  836Sol     HW 6273   1.180   0.190   9.231  1.0043 -1.0546  1.4959
  836Sol     MW 6274   1.126   0.230   9.290 -0.1212 -0.5162  0.4186
  837Sol     OW 6275   0.202   1.244   1.398 -0.0212  1.0322 -0.0290
  837Sol     HW 6276   0.297   1.257   1.392  0.0400  0.9638  0.6799
  837Sol     HW 6277   0.191   1.177   1.465 -0.5566  0.7789 -0.3692
  837Sol     MW 6278   0.210   1.239   1.404  0.3205 -0.0370  0.1512
  838Sol     OW 6279   3.077   0.165   8.741  0.0514  0.0563 -0.2575
  838Sol     HW 6280   3.039   0.235   8.688 -2.5679 -0.2354  1.1297
  838Sol     HW 6281   3.073   0.088   8.685  1.4922  0.6589 -1.2223
  838Sol     MW 6282   3.073   0.165   8.731 -0.4366 -0.0902  1.0254
  839Sol     OW 6283   1.743   1.990   2.117 -0.8528 -0.1373 -0.0733
  839Sol     HW 6284   1.709   1.963   2.203  0.2887 -2.1932 -0.2344
  839Sol     HW 6285   1.667   2.028   2.073 -2.1260 -1.5240  0.8531
  839Sol     MW 6286   1.733   1.991   2.121  0.1991 -0.1015  0.0709
  840Sol     OW 6287   1.381   0.113   7.769  0.1096 -0.3924  0.0811
  840Sol     HW 6288   1.366   0.175   7.840  0.4849 -1.7750  1.3860
  840Sol     HW 6289   1.296   0.073   7.753  0.1067 -0.3649  0.0276
  840Sol     MW 6290   1.372   0.115   7.774  0.2098  0.0400  0.4871
  841Sol     OW 6291   0.472   1.586   8.735  0.7209  0.5536  0.0475
  841Sol     HW 6292   0.507   1.500   8.712  0.1620  0.0303  1.1771
  841Sol     HW 6293   0.497   1.599   8.826 -1.8314  0.2699  0.8224
  841Sol     MW 6294   0.478   1.579   8.741  0.4623  0.0421  0.0422
  842Sol     OW 6295   2.809   1.801   6.403  0.2623 -0.2648  0.4403
  842Sol     HW 6296   2.800   1.706   6.399 -0.6845 -0.1400 -0.4946
  842Sol     HW 6297   2.774   1.825   6.489  1.9819 -0.9103  1.3454
  842Sol     MW 6298   2.805   1.795   6.410 -0.4614 -0.1945  0.2493
  843Sol     OW 6299   0.003   2.437   4.124  0.4308 -0.0215  0.6446
  843Sol     HW 6300   0.024   2.441   4.031 -1.0350  1.3845  0.3429
  843Sol     HW 6301  -0.053   2.359   4.133 -1.5148  1.2504 -0.1277
  843Sol     MW 6302  -0.000   2.430   4.117  0.7669 -0.0098 -0.4784
  844Sol     OW 6303   0.645   2.433   7.690 -0.4547  0.4914  0.3976
  844Sol     HW 6304   0.642   2.525   7.661 -0.5515 -0.5743 -3.2334
  844Sol     HW 6305   0.555   2.413   7.713 -0.8211  0.7226 -0.8050
  844Sol     MW 6306   0.637   2.440   7.689  0.1419  0.3679 -0.2317
  845Sol     OW 6307   0.893   0.540   7.321  0.4012  0.3200 -0.0782
  845Sol     HW 6308   0.944   0.541   7.240  0.3425  1.4007 -0.1089
  845Sol     HW 6309   0.904   0.627   7.358 -1.3982  0.5726 -0.0671
  845Sol     MW 6310   0.898   0.547   7.317 -0.3199  0.1756 -0.2276
  846Sol     OW 6311   3.024   0.404   9.977 -0.0599 -0.1401  0.5187
  846Sol     HW 6312   2.982   0.342   9.918  2.3609 -2.2276  0.9385
  846Sol     HW 6313   3.114   0.413   9.944  0.6567  0.4207  2.5481
  846Sol     MW 6314   3.028   0.400   9.969 -0.3339  0.1538  0.0133
  847Sol     OW 6315   1.765   1.525   3.992  0.0673  0.4446 -0.0244
  847Sol     HW 6316   1.681   1.556   3.959 -0.1304  2.2091  2.0394
  847Sol     HW 6317   1.760   1.430   3.988 -2.4066  0.5141  0.9658
  847Sol     MW 6318   1.757   1.519   3.989  0.0717 -0.1708  0.4388
  848Sol     OW 6319   3.099   2.848   9.324  0.7452  0.3482  0.3881
  848Sol     HW 6320   3.060   2.783   9.266 -0.3428  0.3582  1.0941
  848Sol     HW 6321   3.107   2.804   9.408 -0.0840  1.1521  0.8945
  848Sol     MW 6322   3.096   2.838   9.326  0.3015 -0.0879 -0.1349
  849Sol     OW 6323   2.281   3.132   4.845 -0.3710  0.4028  0.2786
  849Sol     HW 6324   2.205   3.178   4.809 -0.5217  0.2352  0.3862
  849Sol     HW 6325   2.248   3.089   4.923 -0.1110  0.5185  0.4511
  849Sol     MW 6326   2.271   3.133   4.849  0.4213 -0.2415  0.1831
  850Sol     OW 6327   0.038   0.582   7.050 -0.1293  0.0368 -0.5558
  850Sol     HW 6328   0.026   0.495   7.087 -0.0287  0.2512 -0.0090
  850Sol     HW 6329   0.088   0.568   6.970 -0.1868 -0.4167 -0.5103
  850Sol     MW 6330   0.042   0.573   7.046  0.3858 -0.4459  0.3386
  851Sol     OW 6331   2.409   2.824   6.951 -0.0714 -0.0008 -0.4338
  851Sol     HW 6332   2.320   2.791   6.939  0.1953 -0.5088 -1.0514
  851Sol     HW 6333   2.413   2.903   6.896 -0.9100  1.4531  1.5485
  851Sol     MW 6334   2.401   2.828   6.945 -0.1090 -0.5697 -0.0975
  852Sol     OW 6335   0.813   2.283   2.559  0.2017 -0.1927  0.0077
  852Sol     HW 6336   0.780   2.204   2.517 -0.4339 -0.0901  0.3097
  852Sol     HW 6337   0.787   2.275   2.651 -1.2347  1.0781 -0.2659
  852Sol     MW 6338   0.808   2.275   2.563  0.4791 -0.0501  0.2874
  853Sol     OW 6339   1.600   0.473   8.372 -0.4367 -0.1508  0.0259
  853Sol     HW 6340   1.573   0.385   8.399 -0.7096 -0.4687 -1.2533
  853Sol     HW 6341   1.693   0.464   8.351  0.1930  0.4687  2.3943
  853Sol     MW 6342   1.606   0.464   8.373  0.1726  0.2309 -0.2956
  854Sol     OW 6343   0.212   2.734   8.336  0.1256 -0.0580 -0.5416
  854Sol     HW 6344   0.296   2.738   8.292  1.3447  0.2348  1.7386
  854Sol     HW 6345   0.189   2.826   8.353  0.7585 -0.2469  1.4091
  854Sol     MW 6346   0.217   2.743   8.333  0.2922 -0.3577 -0.2077
  855Sol     OW 6347   2.937   1.023   9.650  0.6457 -0.1718 -0.3607
  855Sol     HW 6348   2.856   1.073   9.659  0.5896 -0.2047 -0.7005
  855Sol     HW 6349   2.922   0.964   9.577  0.5076 -1.1010  0.4018
  855Sol     MW 6350   2.929   1.022   9.644 -0.5676  0.1415 -0.0457
  856Sol     OW 6351   1.747   2.725   5.112 -0.0867 -0.0610 -0.1855
  856Sol     HW 6352   1.678   2.664   5.137  0.4286 -0.2167  0.8903
  856Sol     HW 6353   1.712   2.771   5.036 -1.4531 -0.0226  0.4428
  856Sol     MW 6354   1.737   2.724   5.108  0.2062  0.3326 -0.8285
  857Sol     OW 6355   0.674   1.197   2.088  0.1957  0.3815  0.0420
  857Sol     HW 6356   0.606   1.264   2.085  0.5354  0.7226 -0.0323
  857Sol     HW 6357   0.751   1.239   2.050  0.8299  0.4357  1.3632
  857Sol     MW 6358   0.674   1.207   2.084 -0.3125 -0.9815  0.8032
  858Sol     OW 6359   2.860   1.942   9.525  0.3513 -0.1517  0.1077
  858Sol     HW 6360   2.895   1.867   9.476  0.3879  1.0061 -1.6502
  858Sol     HW 6361   2.776   1.960   9.485 -0.9235 -0.9550  2.3292
  858Sol     MW 6362   2.856   1.937   9.517  0.1006 -0.0148  0.1259
  859Sol     OW 6363   2.543   2.129   8.020 -0.2204  0.2902  0.0952
  859Sol     HW 6364   2.554   2.125   7.925  0.0209  1.1081  0.0885
  859Sol     HW 6365   2.602   2.198   8.049  3.3961 -3.1579  1.4430
  859Sol     MW 6366   2.549   2.134   8.014  0.0022  0.1065  0.2778
  860Sol     OW 6367   0.461   3.152   7.348 -0.3546 -0.4603  0.4659
  860Sol     HW 6368   0.369   3.179   7.355 -0.6150 -1.1054 -0.2479
  860Sol     HW 6369   0.456   3.056   7.339  0.2277 -0.3091 -1.9062
  860Sol     MW 6370   0.452   3.146   7.348  0.1707  0.2322 -0.6292
  861Sol     OW 6371   0.738   3.299   6.244  0.2689 -0.2080 -0.5003
  861Sol     HW 6372   0.767   3.266   6.330 -1.3265 -0.7164 -0.1407
  861Sol     HW 6373   0.745   3.394   6.252 -2.0777 -0.1024  1.0544
  861Sol     MW 6374   0.741   3.304   6.253 -0.0492  0.0844  0.2633
  862Sol     OW 6375   2.849   0.881   6.071 -0.1438  0.2945 -0.6881
  862Sol     HW 6376   2.922   0.869   6.131 -0.7288  1.5423  0.2868
  862Sol     HW 6377   2.850   0.974   6.051 -0.4927  0.0391 -1.9334
  862Sol     MW 6378   2.856   0.888   6.074 -0.4436 -0.1426 -0.4236
  863Sol     OW 6379   0.812   2.185   9.223  0.2567 -0.3505  0.7040
  863Sol     HW 6380   0.751   2.220   9.159  1.9507 -0.8526 -1.2181
  863Sol     HW 6381   0.882   2.250   9.227  1.1032 -1.2402  0.5988
  863Sol     MW 6382   0.813   2.194   9.218  0.1261  0.3008 -0.3144
  864Sol     OW 6383   2.038   2.369   7.071 -0.7058  0.1595 -0.4364
  864Sol     HW 6384   2.122   2.413   7.088 -0.8398  0.2724 -0.0517
  864Sol     HW 6385   2.016   2.327   7.155 -0.5454 -0.6999 -0.8162
  864Sol     MW 6386   2.044   2.369   7.080  0.4754 -0.0682  0.1246
  865Sol     OW 6387   0.954   2.679   4.855 -0.0763  0.2625  0.3942
  865Sol     HW 6388   1.018   2.649   4.919 -2.5623 -0.3873  2.6570
  865Sol     HW 6389   0.911   2.754   4.897  0.8844  2.2831 -2.1165
  865Sol     MW 6390   0.956   2.683   4.864 -0.3295  0.5612 -0.3250
  866Sol     OW 6391   2.176   1.883   5.435 -0.1376  0.4399 -0.0608
  866Sol     HW 6392   2.143   1.967   5.467  1.2957  0.9208  0.1787
  866Sol     HW 6393   2.263   1.874   5.475 -0.0565 -0.9071 -0.5097
  866Sol     MW 6394   2.181   1.889   5.442  0.1270 -0.0935 -0.5284
  867Sol     OW 6395   3.004   2.993   1.337 -0.4103 -0.4848  0.5990
  867Sol     HW 6396   2.964   3.074   1.368 -1.5229 -0.6271 -0.4216
  867Sol     HW 6397   2.953   2.923   1.378 -1.6987 -0.6710 -1.2907
  867Sol     MW 6398   2.996   2.994   1.343 -0.3968 -0.0431  0.3031
  868Sol     OW 6399   0.322   2.681   4.153  0.3235 -0.1588 -0.0999
  868Sol     HW 6400   0.357   2.643   4.234  0.0149  0.5903  0.3930
  868Sol     HW 6401   0.385   2.750   4.130 -0.6370  0.9850  0.6198
  868Sol     MW 6402   0.331   2.684   4.158 -0.1859  0.8017 -0.0470
  869Sol     OW 6403   0.775   0.199   1.909  0.3921 -0.4108  0.2753
  869Sol     HW 6404   0.685   0.225   1.889  1.0293  2.2508  0.6264
  869Sol     HW 6405   0.767   0.137   1.982 -1.2591 -1.9790 -1.1946
  869Sol     MW 6406   0.766   0.196   1.914  0.5820  0.7482 -0.4145
  870Sol     OW 6407   2.775   0.334   5.285  0.2186  0.5139 -0.1660
  870Sol     HW 6408   2.868   0.332   5.304  0.3136 -1.4631 -0.7613
  870Sol     HW 6409   2.743   0.413   5.329  2.2027  1.3516 -0.1843
  870Sol     MW 6410   2.780   0.341   5.290 -0.1215  0.1293  0.7610
  871Sol     OW 6411   1.591   1.598   2.009 -0.2979 -0.3028  1.0942
  871Sol     HW 6412   1.503   1.603   1.972 -0.0554  0.5036  0.6190
  871Sol     HW 6413   1.643   1.659   1.957  0.6445 -1.0873  1.1021
  871Sol     MW 6414   1.588   1.604   2.001 -0.3419  0.2511  0.0893
  872Sol     OW 6415   0.804   0.586   1.379 -0.0976  0.3812  0.1361
  872Sol     HW 6416   0.783   0.650   1.310 -0.0799  0.3869  0.1358
  872Sol     HW 6417   0.870   0.529   1.339  0.1717  0.5994  0.2636
  872Sol     MW 6418   0.808   0.587   1.369  0.4792  0.1798 -0.2558
  873Sol     OW 6419   0.193   1.294   6.699  0.0486 -0.0039 -0.1450
  873Sol     HW 6420   0.101   1.286   6.674  0.1609  0.2861 -0.6554
  873Sol     HW 6421   0.242   1.275   6.619  0.4181  0.4982 -0.0436
  873Sol     MW 6422   0.189   1.292   6.690  0.3343  0.3048  0.5081
  874Sol     OW 6423   2.375   0.784   4.710  0.1134  0.1273  0.0375
  874Sol     HW 6424   2.331   0.707   4.748  0.8790 -0.2391  0.2068
  874Sol     HW 6425   2.317   0.813   4.641 -0.9391  0.3328  0.9964
  874Sol     MW 6426   2.366   0.779   4.707 -0.1468  0.6319  0.6657
  875Sol     OW 6427   0.654   2.098   3.068  0.4050  0.7309  0.8167
  875Sol     HW 6428   0.730   2.063   3.114 -1.5598 -1.4533  2.5242
  875Sol     HW 6429   0.599   2.136   3.137  0.2640  3.0398 -0.4815
  875Sol     MW 6430   0.656   2.099   3.078 -0.4014  0.0524  0.0624
  876Sol     OW 6431   2.314   0.592   1.588 -0.2049  0.0430  0.0899
  876Sol     HW 6432   2.341   0.664   1.530 -1.0862 -0.9633 -1.5922
  876Sol     HW 6433   2.256   0.634   1.651  1.5383  1.3400  0.8716
  876Sol     MW 6434   2.311   0.602   1.588  0.0366 -0.0839  0.1854
  877Sol     OW 6435   1.651   0.715   7.531 -0.0934 -0.1142 -0.1774
  877Sol     HW 6436   1.693   0.637   7.497 -1.2406 -0.6352 -0.4423
  877Sol     HW 6437   1.650   0.703   7.626 -1.0750 -0.8601 -0.2694
  877Sol     MW 6438   1.654   0.707   7.537  0.6677 -0.1807 -0.2396
  878Sol     OW 6439   0.555   1.517   6.014 -0.0124 -0.4266  0.2250
  878Sol     HW 6440   0.597   1.530   6.099  0.9628  0.9036 -0.4452
  878Sol     HW 6441   0.473   1.567   6.020  0.5291  0.4950  0.0383
  878Sol     MW 6442   0.551   1.523   6.022  0.0830 -0.0949  0.2583
  879Sol     OW 6443   2.839   0.129   2.227 -0.2743  0.1319  0.2124
  879Sol     HW 6444   2.891   0.149   2.149  1.8791 -1.3744  1.2337
  879Sol     HW 6445   2.785   0.207   2.240  0.1843  0.8677 -2.1001
  879Sol     MW 6446   2.839   0.138   2.221  0.2496 -0.0174  0.2593
  880Sol     OW 6447   2.115   1.073   8.814  0.0811 -0.1506  0.0230
  880Sol     HW 6448   2.123   1.047   8.723  0.7119  1.0484 -0.2757
  880Sol     HW 6449   2.183   1.139   8.827  0.2587 -0.5940  1.4672
  880Sol     MW 6450   2.122   1.077   8.807  0.0475  0.1643  0.2428
  881Sol     OW 6451   1.879   1.507   3.048  0.1777 -0.4288  0.2854
  881Sol     HW 6452   1.875   1.584   2.991 -1.3132 -1.2424 -0.7450
  881Sol     HW 6453   1.902   1.542   3.134  0.0472  1.1073 -0.2965
  881Sol     MW 6454   1.880   1.517   3.051  0.2764 -0.0940  0.0833
  882Sol     OW 6455   1.337   0.803   4.399  0.2348  0.4854  0.3362
  882Sol     HW 6456   1.307   0.806   4.308 -0.1377 -2.6954  0.3234
  882Sol     HW 6457   1.268   0.848   4.448  0.6254  2.5774 -0.9662
  882Sol     MW 6458   1.328   0.808   4.395 -0.0499 -0.7269  0.4637
  883Sol     OW 6459   2.012   0.107   4.461  0.6080  0.0468 -0.2925
  883Sol     HW 6460   2.028   0.020   4.426 -1.8066 -0.2277 -0.8211
  883Sol     HW 6461   1.918   0.121   4.449  0.9180  2.6525 -0.0483
  883Sol     MW 6462   2.005   0.100   4.457 -0.3160  0.3709  0.0072
  884Sol     OW 6463   2.732   3.442   4.371  0.3516 -0.2950  1.1127
  884Sol     HW 6464   2.665   3.381   4.403 -0.8145  0.6702  0.5485
  884Sol     HW 6465   2.790   3.455   4.446 -0.1693 -1.0488  1.6574
  884Sol     MW 6466   2.731   3.438   4.381  0.4993 -0.1060 -0.0338
  885Sol     OW 6467   2.966   2.190   5.708 -0.5730  0.8068 -0.5619
  885Sol     HW 6468   2.876   2.207   5.678 -0.7585  3.0784  1.1352
  885Sol     HW 6469   2.995   2.274   5.743  1.9789 -0.1007 -0.4143
  885Sol     MW 6470   2.961   2.199   5.708  0.3877 -0.0516  0.0540
  886Sol     OW 6471   2.060   2.312   3.323  0.6941 -0.0284  0.0692
  886Sol     HW 6472   1.994   2.243   3.330 -0.7467  1.3485  0.4445
  886Sol     HW 6473   2.031   2.366   3.249  2.5446 -0.5892 -1.0863
  886Sol     MW 6474   2.051   2.311   3.317 -0.3286  0.3588  0.1162
  887Sol     OW 6475   0.405   0.626   3.496 -0.6119  0.1367 -0.1241
  887Sol     HW 6476   0.483   0.680   3.488  0.1537 -0.6011  2.1327
  887Sol     HW 6477   0.360   0.659   3.574 -3.5429  1.7375 -2.3438
  887Sol     MW 6478   0.408   0.633   3.502 -0.2055  0.1643 -0.0591
  888Sol     OW 6479   2.379   1.680   5.283  0.3095  0.1509  0.2272
  888Sol     HW 6480   2.461   1.648   5.246  0.2289  0.5298 -0.2790
  888Sol     HW 6481   2.367   1.627   5.362  1.4550  0.6476  0.7500
  888Sol     MW 6482   2.386   1.672   5.287 -0.2595  0.2841 -0.7707
  889Sol     OW 6483   3.169   2.034   3.042 -0.4761  0.7063  0.4030
  889Sol     HW 6484   3.172   2.049   2.948 -1.0356 -1.4416  0.0125
  889Sol     HW 6485   3.079   2.006   3.059 -0.0596 -0.0704  1.3737
  889Sol     MW 6486   3.161   2.033   3.035 -0.1682  0.0665  0.0157
  890Sol     OW 6487   3.285   0.325   2.610 -0.0592  0.2353  0.5012
  890Sol     HW 6488   3.212   0.346   2.553  1.0917 -0.2534 -1.2059
  890Sol     HW 6489   3.329   0.409   2.626  0.8481  0.0958 -1.1116
  890Sol     MW 6490   3.283   0.334   2.606 -0.0532 -0.1583  0.1598
  891Sol     OW 6491   0.240   3.352   5.423  0.3789  0.3523 -0.0134
  891Sol     HW 6492   0.210   3.325   5.336  1.3251  0.8440 -0.4994
  891Sol     HW 6493   0.195   3.293   5.483 -0.1657 -0.0942 -0.8490
  891Sol     MW 6494   0.233   3.345   5.420  0.0649  0.3110 -0.7892
  892Sol     OW 6495   1.767   0.176   4.339 -0.4045 -0.1148  0.1833
  892Sol     HW 6496   1.791   0.195   4.248 -0.9525 -0.5243 -0.0541
  892Sol     HW 6497   1.673   0.157   4.335 -0.5026  0.2221  0.8936
  892Sol     MW 6498   1.761   0.176   4.330  0.4677  0.0917  0.4546
  893Sol     OW 6499   1.793   2.977   7.200  0.5652 -0.9526  0.1605
  893Sol     HW 6500   1.769   2.892   7.237  0.6559 -0.7388  0.7327
  893Sol     HW 6501   1.713   3.009   7.158  0.0853 -0.6362  1.2934
  893Sol     MW 6502   1.783   2.973   7.200  0.5116  0.5842 -0.2850
  894Sol     OW 6503   0.345   0.987   3.761 -0.2116 -0.1240  0.5671
  894Sol     HW 6504   0.301   0.992   3.676 -1.1378 -0.5359  1.0200
  894Sol     HW 6505   0.432   1.024   3.745 -0.8856  1.1281 -0.2139
  894Sol     MW 6506   0.349   0.991   3.752  0.1905 -0.0105 -0.1351
  895Sol     OW 6507   1.148   1.664   8.257  0.1706  0.4015 -0.2342
  895Sol     HW 6508   1.074   1.711   8.219  0.5336  1.9898  0.9736
  895Sol     HW 6509   1.190   1.621   8.182 -3.0221 -2.0947 -0.7184
  895Sol     MW 6510   1.145   1.664   8.247  0.5517 -0.4818  0.5849
  896Sol     OW 6511   2.648   1.964   5.505 -0.5719  0.0618  0.2001
  896Sol     HW 6512   2.683   2.016   5.577 -1.7638 -0.8162  1.4433
  896Sol     HW 6513   2.721   1.909   5.477 -0.2032  0.1348  1.0041
  896Sol     MW 6514   2.658   1.964   5.509  0.0638 -0.1946  0.2660
  897Sol     OW 6515   2.262   0.534   9.126 -1.1495  0.1968  0.1040
  897Sol     HW 6516   2.218   0.449   9.124  0.0341 -0.4564  1.1311
  897Sol     HW 6517   2.342   0.519   9.175  0.6074  1.2075 -2.3344
  897Sol     MW 6518   2.265   0.525   9.130  0.0906  0.4196  0.1391
  898Sol     OW 6519   2.709   2.891   3.877  0.8476 -0.5481  0.0783
  898Sol     HW 6520   2.627   2.875   3.830  0.5386  1.4296 -0.1162
  898Sol     HW 6521   2.708   2.985   3.894  2.3113 -0.7880  1.5380
  898Sol     MW 6522   2.702   2.898   3.874 -0.2775  0.5374  0.3221
  899Sol     OW 6523   1.105   0.350   4.606  0.1242  0.4698  0.3174
  899Sol     HW 6524   1.149   0.434   4.587 -0.2286  0.1273 -2.1266
  899Sol     HW 6525   1.124   0.296   4.530  0.7446 -1.8842  2.0860
  899Sol     MW 6526   1.111   0.353   4.598 -0.1096  0.2997  0.1374
  900Sol     OW 6527   0.372   0.987   6.041  0.1375  0.0241  0.2887
  900Sol     HW 6528   0.396   1.000   5.950 -0.3143 -1.7291 -0.1135
  900Sol     HW 6529   0.355   1.075   6.075  0.6097  0.7133 -1.2282
  900Sol     MW 6530   0.372   0.996   6.036 -0.5189 -0.5789  0.2065
  901Sol     OW 6531   1.027   3.267   6.338 -0.0357  0.2230 -0.1536
  901Sol     HW 6532   1.100   3.209   6.356  0.4859  0.9626  0.1463
  901Sol     HW 6533   0.995   3.294   6.424 -1.6268 -1.2707 -0.2511
  901Sol     MW 6534   1.030   3.264   6.347  0.2386 -0.8547 -0.0111
  902Sol     OW 6535   0.548   2.655   8.463  0.7903  0.5525 -0.5134
  902Sol     HW 6536   0.622   2.715   8.470  0.9580  0.2648  0.1237
  902Sol     HW 6537   0.476   2.701   8.507  0.6969  0.6425 -0.7552
  902Sol     MW 6538   0.548   2.665   8.467  0.3137  0.2530  0.1470
  903Sol     OW 6539   1.971   0.148   5.141  0.4345  0.2044 -0.0238
  903Sol     HW 6540   2.041   0.088   5.116  0.1708  0.3698 -1.1512
  903Sol     HW 6541   1.954   0.200   5.063  0.1649  1.2695  0.7280
  903Sol     MW 6542   1.976   0.148   5.132  0.6944  0.1200 -0.1282
  904Sol     OW 6543   3.033   2.497   7.138  0.0439  0.0052 -0.3832
  904Sol     HW 6544   2.992   2.526   7.057  0.6424 -0.0223 -0.7030
  904Sol     HW 6545   2.968   2.440   7.180 -0.3906  0.2829 -0.6824
  904Sol     MW 6546   3.024   2.495   7.135  0.3572  0.1427  0.0609
  905Sol     OW 6547   1.601   1.726   4.588  0.1566  0.5320  0.1078
  905Sol     HW 6548   1.686   1.681   4.592  1.3889  2.8197  0.3739
  905Sol     HW 6549   1.584   1.738   4.495  0.4237  0.6210  0.0704
  905Sol     MW 6550   1.607   1.723   4.580 -0.0443 -0.4299 -0.0465
  906Sol     OW 6551   2.247   1.840   4.773 -0.0805  0.3678 -0.3885
  906Sol     HW 6552   2.291   1.925   4.780 -0.3081  0.5396 -0.9835
  906Sol     HW 6553   2.234   1.827   4.679  2.1814 -1.4776 -0.4832
  906Sol     MW 6554   2.250   1.846   4.765 -0.0337  0.2766  0.0917
  907Sol     OW 6555   2.999   2.192   6.211  0.3175 -0.4898  0.0624
  907Sol     HW 6556   3.055   2.215   6.284  1.0951 -2.1994  0.0166
  907Sol     HW 6557   2.930   2.259   6.211  1.7344  0.9855  0.7766
  907Sol     MW 6558   2.998   2.200   6.217 -0.1812  0.5038  0.4599
  908Sol     OW 6559   1.579   1.657   6.828 -0.4533 -0.0136 -0.1292
  908Sol     HW 6560   1.594   1.745   6.793 -1.9196 -0.3766 -1.7488
  908Sol     HW 6561   1.658   1.609   6.804 -0.4158  0.3924 -0.8336
  908Sol     MW 6562   1.588   1.661   6.822 -0.4593  0.1548 -0.4206
  909Sol     OW 6563   2.345   2.240   5.642 -0.5884 -0.3633  0.1910
  909Sol     HW 6564   2.410   2.177   5.610  0.3112  0.9455 -0.6100
  909Sol     HW 6565   2.264   2.217   5.595 -0.4871 -1.4625  0.5542
  909Sol     MW 6566   2.343   2.232   5.635 -0.2717  0.3220  0.0116
  910Sol     OW 6567   2.268   2.252   8.100  0.2798 -0.2818  0.2098
  910Sol     HW 6568   2.246   2.186   8.166  1.6915  0.5707  1.5668
  910Sol     HW 6569   2.333   2.209   8.044  0.5947 -0.3190  0.6053
  910Sol     MW 6570   2.272   2.242   8.101  0.3062  0.0327 -0.8534
  911Sol     OW 6571   1.142   0.119   2.678 -0.6430  0.4744 -0.2829
  911Sol     HW 6572   1.237   0.120   2.683 -0.5636 -1.0671 -1.4395
  911Sol     HW 6573   1.121   0.173   2.602 -0.5985 -0.7848 -1.2024
  911Sol     MW 6574   1.148   0.124   2.672  0.2888 -0.3918  0.0825
  912Sol     OW 6575   1.739   2.862   6.724  0.2101  0.1161  0.8331
  912Sol     HW 6576   1.730   2.958   6.722  2.0750  0.3546  2.4127
  912Sol     HW 6577   1.833   2.847   6.737  0.3933 -2.0014 -2.2493
  912Sol     MW 6578   1.747   2.869   6.725 -0.8696 -0.7475 -0.5509
  913Sol     OW 6579   3.166   3.018   3.599 -0.5344  0.5004 -0.1127
  913Sol     HW 6580   3.143   2.927   3.621 -1.0833  0.8939  0.9704
  913Sol     HW 6581   3.133   3.030   3.510 -0.1895 -0.4528 -0.3819
  913Sol     MW 6582   3.161   3.011   3.593  0.1978  0.4610  0.3510
  914Sol     OW 6583   3.102   2.171   9.337 -0.2452 -0.2998  0.1208
  914Sol     HW 6584   3.165   2.127   9.395 -0.4207 -0.2122  0.3764
  914Sol     HW 6585   3.058   2.099   9.291 -0.1161 -0.3701  0.1063
  914Sol     MW 6586   3.104   2.161   9.338  0.2199 -0.2352  0.3603
  915Sol     OW 6587   1.849   1.389   3.505 -0.7076  0.5950  0.1896
  915Sol     HW 6588   1.793   1.325   3.548  0.5294  0.5623  1.7965
  915Sol     HW 6589   1.855   1.462   3.567  1.4997  0.3339  0.3208
  915Sol     MW 6590   1.845   1.390   3.514  0.3192  0.1999  0.2651
  916Sol     OW 6591   0.002   0.322   3.900  0.7143  0.5999  0.4300
  916Sol     HW 6592   0.033   0.233   3.920  0.7429  0.8841  1.6681
  916Sol     HW 6593  -0.056   0.310   3.825  1.6968 -0.2970 -0.2021
  916Sol     MW 6594  -0.000   0.313   3.895  0.3112  0.0809 -0.2545
  917Sol     OW 6595   1.525   0.282   9.531  0.3264  0.4881  0.2563
  917Sol     HW 6596   1.477   0.348   9.482 -0.2368  0.2191  0.4337
  917Sol     HW 6597   1.568   0.331   9.601  0.3691  0.7425  0.0517
  917Sol     MW 6598   1.524   0.292   9.533 -0.0533  0.0079  0.6782
  918Sol     OW 6599   3.157   3.434   3.014 -0.4297 -0.0986 -0.1664
  918Sol     HW 6600   3.063   3.445   3.030 -1.0494 -1.5972 -2.5788
  918Sol     HW 6601   3.176   3.494   2.942  0.3270 -0.3060 -0.1395
  918Sol     MW 6602   3.150   3.441   3.009 -0.4025 -0.3562  0.1762
  919Sol     OW 6603   1.461   1.410   3.571 -0.0221  0.2607 -0.1020
  919Sol     HW 6604   1.486   1.427   3.480 -3.6428  1.5800 -0.9306
  919Sol     HW 6605   1.429   1.494   3.604 -1.8623 -0.9374  1.3052
  919Sol     MW 6606   1.460   1.419   3.566 -0.0703  0.0447 -0.5023
  920Sol     OW 6607   3.126   1.330   4.782 -0.1401  0.2089 -0.0425
  920Sol     HW 6608   3.132   1.235   4.771  2.1977  0.6213 -3.3884
  920Sol     HW 6609   3.033   1.347   4.792 -0.6887 -2.3635 -0.2859
  920Sol     MW 6610   3.118   1.323   4.782 -0.0030 -0.3191 -0.0499
  921Sol     OW 6611   1.141   0.346   5.067  0.0640  0.4547  0.2990
  921Sol     HW 6612   1.131   0.305   4.981  1.8304 -0.2246  0.3918
  921Sol     HW 6613   1.121   0.276   5.129 -1.0541  0.9017  0.4398
  921Sol     MW 6614   1.138   0.336   5.065 -0.0855  0.1694  0.2081
  922Sol     OW 6615   0.505   1.994   9.079 -0.0254 -0.0775 -0.6713
  922Sol     HW 6616   0.563   1.976   9.154 -0.7372 -1.5579 -0.4676
  922Sol     HW 6617   0.557   1.970   9.002 -0.8557 -2.9053 -0.4231
  922Sol     MW 6618   0.515   1.990   9.079 -0.2441  0.4031  0.1600
  923Sol     OW 6619   3.184   3.369   3.298 -0.0802  0.1841 -0.4349
  923Sol     HW 6620   3.159   3.378   3.206 -2.4342 -1.5893 -0.0355
  923Sol     HW 6621   3.101   3.371   3.345  1.0721  0.6372  1.6214
  923Sol     MW 6622   3.174   3.370   3.294  0.6338 -0.1021  0.3378
  924Sol     OW 6623   0.702   2.688   7.596  0.3305 -0.0648  0.3261
  924Sol     HW 6624   0.772   2.727   7.647  0.2940  1.9856 -1.1202
  924Sol     HW 6625   0.742   2.666   7.512  0.1925 -2.6364  0.8784
  924Sol     MW 6626   0.712   2.689   7.593 -0.0987 -0.2891 -0.2927
  925Sol     OW 6627   2.913   1.410   2.289  0.2209 -0.5660 -0.5063
  925Sol     HW 6628   2.987   1.470   2.291  0.3191 -0.6472 -1.3948
  925Sol     HW 6629   2.941   1.338   2.232 -0.9750 -0.0021 -1.8213
  925Sol     MW 6630   2.922   1.409   2.284  0.8590 -0.1804  0.2100
  926Sol     OW 6631   0.738   1.444   8.875 -0.2448  0.2379 -0.1873
  926Sol     HW 6632   0.804   1.452   8.807 -0.4909  0.9143 -0.3575
  926Sol     HW 6633   0.671   1.386   8.838  0.2303 -0.4135 -0.0291
  926Sol     MW 6634   0.738   1.440   8.866  0.1278 -0.2107  0.3311
  927Sol     OW 6635   0.830   2.199   8.415 -0.6070  0.1056  0.4737
  927Sol     HW 6636   0.806   2.107   8.421 -0.2820 -0.0221 -0.2032
  927Sol     HW 6637   0.746   2.245   8.413 -0.9048 -0.4464 -3.6799
  927Sol     MW 6638   0.820   2.195   8.415 -0.1950 -0.2833  0.4221
  928Sol     OW 6639   2.362   1.270   8.869  0.6450 -0.7110  0.7508
  928Sol     HW 6640   2.358   1.353   8.915 -3.1301 -0.4782  0.1698
  928Sol     HW 6641   2.384   1.206   8.936 -0.3241  0.2445  2.0020
  928Sol     MW 6642   2.364   1.271   8.879 -0.1077  0.4892  0.1142
  929Sol     OW 6643   2.938   3.309   8.091 -0.3217 -0.3878  0.3278
  929Sol     HW 6644   3.025   3.287   8.123  0.1438  0.3808 -0.4037
  929Sol     HW 6645   2.924   3.251   8.016  0.2059  0.5749 -0.5279
  929Sol     MW 6646   2.944   3.302   8.087  0.2081  0.2280 -0.3733
  930Sol     OW 6647   2.481   1.745   1.486  0.3565  0.6130 -0.0998
  930Sol     HW 6648   2.461   1.657   1.455  3.0610  0.9228 -2.9510
  930Sol     HW 6649   2.522   1.732   1.571  1.1716 -0.9578 -0.7033
  930Sol     MW 6650   2.483   1.736   1.491 -0.0879 -0.1639  0.0446
  931Sol     OW 6651   1.067   1.902   3.690  0.5995 -0.3214  0.0441
  931Sol     HW 6652   1.060   1.995   3.669  0.0069 -0.7261 -1.6143
  931Sol     HW 6653   0.993   1.861   3.645 -0.2179 -1.3574  2.2720
  931Sol     MW 6654   1.060   1.907   3.684  1.1065  0.1882 -0.4358
  932Sol     OW 6655   2.154   0.281   6.446 -0.2131 -0.1781 -0.8700
  932Sol     HW 6656   2.218   0.230   6.397 -1.8216 -0.8444 -2.3367
  932Sol     HW 6657   2.203   0.316   6.521  1.5600 -1.6338 -1.3114
  932Sol     MW 6658   2.164   0.279   6.449 -0.6874  0.4165 -0.2725
  933Sol     OW 6659   0.443   2.638   6.808 -0.7356  0.0568  0.3277
  933Sol     HW 6660   0.473   2.694   6.736  0.3865  0.2738  0.9592
  933Sol     HW 6661   0.457   2.549   6.776  3.9201  0.1031  1.9206
  933Sol     MW 6662   0.447   2.635   6.798  0.1175  0.4907 -0.5153
  934Sol     OW 6663   0.674   1.548   5.733 -0.1472  1.2544 -0.1469
  934Sol     HW 6664   0.615   1.511   5.798  0.6514 -0.9102 -0.5807
  934Sol     HW 6665   0.622   1.553   5.653 -0.4054  1.5506  0.0379
  934Sol     MW 6666   0.664   1.545   5.731 -0.4368 -0.2690 -0.0814
  935Sol     OW 6667   2.207   2.008   5.817 -0.4808  0.3936  0.3965
  935Sol     HW 6668   2.154   2.057   5.754 -1.5057  2.1833  2.5981
  935Sol     HW 6669   2.291   2.054   5.819  1.3045 -2.3855 -3.0194
  935Sol     MW 6670   2.210   2.016   5.811  0.3507 -0.0953  0.1408
  936Sol     OW 6671   2.248   2.350   6.754 -0.0171 -0.3624  0.1082
  936Sol     HW 6672   2.328   2.363   6.804 -1.2538 -1.0150  2.3523
  936Sol     HW 6673   2.188   2.308   6.816 -2.1556  0.3120 -1.4469
  936Sol     MW 6674   2.249   2.348   6.764 -0.5257 -0.2966 -0.5757
  937Sol     OW 6675   1.755   3.307   4.454  0.1003  0.0192 -0.3044
  937Sol     HW 6676   1.810   3.336   4.381 -0.7835  0.3633 -0.8437
  937Sol     HW 6677   1.667   3.333   4.429 -0.1386  0.6903  1.1688
  937Sol     MW 6678   1.752   3.312   4.445 -0.0117  0.4235  0.4101
  938Sol     OW 6679   0.740   0.990   9.859 -0.5806 -0.2043 -0.6056
  938Sol     HW 6680   0.712   1.081   9.845  2.0164  0.7461  0.2057
  938Sol     HW 6681   0.742   0.980   9.954  1.3949 -0.3749 -0.6605
  938Sol     MW 6682   0.737   0.997   9.866  0.2003 -0.5211 -0.7128
  939Sol     OW 6683   3.050   1.361   8.840  0.3182  0.2358  0.0852
  939Sol     HW 6684   3.100   1.282   8.817 -1.7802 -0.6098 -1.7632
  939Sol     HW 6685   2.958   1.337   8.825 -0.3215  3.2767 -1.2227
  939Sol     MW 6686   3.046   1.352   8.837 -0.5172 -0.3363 -0.1545
  940Sol     OW 6687   1.982   0.201   6.031 -0.0054 -0.0818  0.7038
  940Sol     HW 6688   1.922   0.185   6.104  1.7655 -1.6313  1.8871
  940Sol     HW 6689   1.992   0.296   6.028  0.3886 -0.0185  2.9337
  940Sol     MW 6690   1.978   0.208   6.038  0.4368  0.4719  0.5656
  941Sol     OW 6691   2.715   0.286   6.530 -0.3471  0.5174  0.3618
  941Sol     HW 6692   2.801   0.300   6.490 -1.3302  2.2288 -1.2572
  941Sol     HW 6693   2.671   0.225   6.472 -0.4504  0.1143  0.8608
  941Sol     MW 6694   2.719   0.282   6.521  0.0344 -0.5466  0.1168
  942Sol     OW 6695   2.644   0.874   6.810  0.1567 -0.1603 -0.5058
  942Sol     HW 6696   2.571   0.852   6.866 -0.5153 -0.9408 -1.6758
  942Sol     HW 6697   2.719   0.829   6.849 -0.1722 -0.1661  0.1232
  942Sol     MW 6698   2.645   0.868   6.818 -0.2577  0.1018  0.0184
  943Sol     OW 6699   2.838   0.432   1.784 -0.3655 -0.3746  0.9014
  943Sol     HW 6700   2.854   0.433   1.689 -1.9905  0.9907  0.6360
  943Sol     HW 6701   2.750   0.467   1.794  0.0592  0.1264  2.9909
  943Sol     MW 6702   2.832   0.435   1.776 -0.2521  0.2629 -0.3567
  944Sol     OW 6703   0.336   3.240   5.174 -0.3822  0.3174 -0.1552
  944Sol     HW 6704   0.270   3.213   5.110  2.2649 -0.2344 -2.7838
  944Sol     HW 6705   0.368   3.158   5.212  0.0493  0.4530 -0.2224
  944Sol     MW 6706   0.333   3.230   5.171 -0.2249  0.0465  0.0421
  945Sol     OW 6707   2.139   1.301   2.343  0.4463 -0.1297 -0.9809
  945Sol     HW 6708   2.067   1.241   2.364  1.4428 -1.1051 -0.3042
  945Sol     HW 6709   2.159   1.344   2.426  1.6884 -1.0148 -0.8097
  945Sol     MW 6710   2.134   1.299   2.352 -0.2673  0.3776 -0.6607
  946Sol     OW 6711   1.378   2.696   6.515 -0.1816  0.7536  0.3061
  946Sol     HW 6712   1.360   2.675   6.423  0.3432 -0.9744  0.5803
  946Sol     HW 6713   1.462   2.653   6.533 -0.6946  0.3600  1.8244
  946Sol     MW 6714   1.384   2.690   6.508  0.1361 -0.0542  0.1810
  947Sol     OW 6715   2.427   0.669   7.525 -0.2676  0.5295 -0.0186
  947Sol     HW 6716   2.364   0.731   7.488  0.1465  0.5349 -0.7170
  947Sol     HW 6717   2.484   0.723   7.580 -1.2789  0.4252  1.1663
  947Sol     MW 6718   2.426   0.679   7.527  0.1274 -0.1948  0.3239
  948Sol     OW 6719   1.521   0.382   6.073  0.1984 -0.1753  0.1491
  948Sol     HW 6720   1.590   0.324   6.107 -0.2226 -0.2151  0.9583
  948Sol     HW 6721   1.441   0.330   6.079 -0.1792  0.4790  0.8715
  948Sol     MW 6722   1.520   0.372   6.077  0.5303 -0.0917 -0.1977
  949Sol     OW 6723   3.263   0.935   9.467 -0.1652 -0.2218 -0.2904
  949Sol     HW 6724   3.290   1.021   9.498  2.1199 -1.2571  0.6476
  949Sol     HW 6725   3.292   0.932   9.375 -0.7381  0.2137 -0.4846
  949Sol     MW 6726   3.268   0.942   9.461  0.4449  0.1088  0.6980
  950Sol     OW 6727   2.293   2.255   9.318  0.0821  0.1098  0.2076
  950Sol     HW 6728   2.282   2.257   9.413 -1.3240  0.2983  0.0558
  950Sol     HW 6729   2.370   2.310   9.301  0.4472 -0.0808  1.2493
  950Sol     MW 6730   2.299   2.260   9.325 -0.1781  0.1788  0.2292
  951Sol     OW 6731   0.310   3.178   9.938  0.2639 -0.3505  0.2413
  951Sol     HW 6732   0.310   3.084   9.956  0.5106 -0.3751  0.1131
  951Sol     HW 6733   0.400   3.198   9.913  0.0550 -0.2223 -0.4348
  951Sol     MW 6734   0.318   3.172   9.937 -0.0014  0.0335  0.0043
  952Sol     OW 6735   1.831   0.604   6.441  0.2978  0.0600  0.0691
  952Sol     HW 6736   1.863   0.586   6.352 -0.1719 -1.9519  0.2788
  952Sol     HW 6737   1.823   0.699   6.444 -1.6812  0.0581 -2.7773
  952Sol     MW 6738   1.833   0.611   6.433 -0.0703 -0.6755  0.0137
  953Sol     OW 6739   0.124   2.214   6.961  0.8129  0.0841  0.7218
  953Sol     HW 6740   0.217   2.223   6.981  1.4984 -0.4348 -1.9500
  953Sol     HW 6741   0.092   2.304   6.950  1.1425  0.2402  1.0602
  953Sol     MW 6742   0.129   2.223   6.962 -0.4799 -0.7012 -0.3325
  954Sol     OW 6743   3.101   1.850   2.309  0.3776 -0.3000  0.2809
  954Sol     HW 6744   3.056   1.906   2.246  1.2065  0.6630  0.5396
  954Sol     HW 6745   3.194   1.860   2.288  0.7476  0.8779  2.3359
  954Sol     MW 6746   3.105   1.856   2.301  0.1685 -0.1781  0.0685
  955Sol     OW 6747   0.237   1.219   9.358  0.0226 -0.2965  0.3638
  955Sol     HW 6748   0.168   1.221   9.424  0.4154 -3.5937  0.9462
  955Sol     HW 6749   0.206   1.277   9.288 -1.8806  0.6672  1.9704
  955Sol     MW 6750   0.228   1.225   9.357 -0.3159 -0.2934  0.3849
  956Sol     OW 6751   0.658   2.694   1.927 -0.3393  0.4772 -0.6532
  956Sol     HW 6752   0.563   2.695   1.933 -0.2558 -0.5423  1.8162
  956Sol     HW 6753   0.677   2.635   1.854 -1.6109  0.0670 -0.6695
  956Sol     MW 6754   0.651   2.688   1.921 -0.4983 -0.1189  0.6203
  957Sol     OW 6755   0.140   0.956   7.544 -0.0178  0.7118  0.0454
  957Sol     HW 6756   0.071   0.894   7.520 -1.5823  2.4844 -0.0719
  957Sol     HW 6757   0.183   0.978   7.460  1.6147 -1.3967  0.2679
  957Sol     MW 6758   0.138   0.952   7.534  0.0875  0.1227  0.6675
  958Sol     OW 6759   3.004   0.938   4.541  0.3181  0.1550 -0.3881
  958Sol     HW 6760   2.963   0.852   4.552 -0.6260  0.5162 -1.1001
  958Sol     HW 6761   3.015   0.948   4.447  1.4996  0.3242 -0.2423
  958Sol     MW 6762   3.002   0.931   4.534  0.3286  0.1971  0.0074
  959Sol     OW 6763   2.717   0.226   1.356 -0.0973  0.2604 -0.3563
  959Sol     HW 6764   2.753   0.287   1.420 -0.6229  1.2411 -0.9933
  959Sol     HW 6765   2.637   0.193   1.397  0.2791 -0.1418  0.0607
  959Sol     MW 6766   2.713   0.228   1.365  0.3145 -0.0154 -0.3042
  960Sol     OW 6767   2.065   2.869   5.393  0.1773  0.3455 -0.2340
  960Sol     HW 6768   1.980   2.884   5.351  0.2132 -0.8361 -0.7525
  960Sol     HW 6769   2.095   2.956   5.418 -2.5833  0.5423  2.7115
  960Sol     MW 6770   2.060   2.878   5.391  0.0687 -0.4902  0.2834
  961Sol     OW 6771   1.007   1.412   4.085  0.5664 -0.0518 -0.1713
  961Sol     HW 6772   1.087   1.365   4.109  1.0299 -0.5334 -2.6023
  961Sol     HW 6773   0.944   1.343   4.063  0.0753  0.3794 -0.1432
  961Sol     MW 6774   1.008   1.402   4.086 -0.3210  0.5043  0.1781
  962Sol     OW 6775   0.695   0.898   2.074  0.5886 -0.2267 -0.2891
  962Sol     HW 6776   0.618   0.857   2.113  0.6291 -0.1217 -0.1009
  962Sol     HW 6777   0.693   0.988   2.105 -0.1812  0.2480 -1.6781
  962Sol     MW 6778   0.688   0.902   2.080  0.2345 -0.0584 -0.1808
  963Sol     OW 6779   2.995   1.303   3.345 -0.6779 -0.0520  0.1054
  963Sol     HW 6780   3.019   1.291   3.252 -0.4351 -2.0275  0.3912
  963Sol     HW 6781   2.900   1.291   3.347 -0.7922  0.8196 -0.0039
  963Sol     MW 6782   2.989   1.301   3.336 -0.4442 -0.8026 -0.4324
  964Sol     OW 6783   2.603   1.455   4.664  0.7045 -0.2042  0.0827
  964Sol     HW 6784   2.573   1.375   4.708 -0.5222  1.0551  1.5954
  964Sol     HW 6785   2.527   1.487   4.616  1.0050  0.4148  0.0097
  964Sol     MW 6786   2.594   1.451   4.664 -0.7093  0.1774  0.1251
  965Sol     OW 6787   1.361   1.193   2.094  0.1679 -0.1905 -0.0108
  965Sol     HW 6788   1.444   1.232   2.066 -0.2817  0.5837 -0.2803
  965Sol     HW 6789   1.298   1.219   2.027 -0.3976 -0.3616  0.4499
  965Sol     MW 6790   1.363   1.199   2.086 -0.6381 -0.0901  0.2901
  966Sol     OW 6791   0.652   3.232   3.192  0.2540  0.5317  0.3680
  966Sol     HW 6792   0.660   3.306   3.132  0.0628 -0.0617 -0.3841
  966Sol     HW 6793   0.742   3.203   3.208  0.2904  0.5708  0.2270
  966Sol     MW 6794   0.661   3.236   3.188  0.3796  0.3627  0.0048
  967Sol     OW 6795   1.165   3.420   7.728  0.2907  0.2339 -0.2538
  967Sol     HW 6796   1.157   3.332   7.765 -2.7994  0.2389 -0.7941
  967Sol     HW 6797   1.090   3.468   7.763 -0.1034  1.5813 -2.8087
  967Sol     MW 6798   1.157   3.416   7.735  0.0244  0.2447 -0.0143
  968Sol     OW 6799   2.012   1.384   8.548 -0.4241 -0.0087  0.7665
  968Sol     HW 6800   1.965   1.312   8.506  0.9945 -0.1153 -0.6607
  968Sol     HW 6801   2.103   1.372   8.521 -0.0026  1.7148  1.3937
  968Sol     MW 6802   2.016   1.376   8.542  0.3267 -0.1944  0.4615
  969Sol     OW 6803   3.033   0.411   2.557  0.3532  0.2599  0.3937
  969Sol     HW 6804   2.987   0.328   2.571  3.2079 -1.4093  0.1944
  969Sol     HW 6805   3.038   0.420   2.462 -0.4925  1.0009  0.4106
  969Sol     MW 6806   3.029   0.404   2.550  0.0376 -0.2832  0.8663
  970Sol     OW 6807   1.542   2.054   9.039  0.4517 -0.2403  0.1412
  970Sol     HW 6808   1.465   2.018   8.995 -1.0155  0.1640  2.2552
  970Sol     HW 6809   1.614   2.040   8.978 -0.7623 -3.2770 -0.6652
  970Sol     MW 6810   1.541   2.050   9.030  0.1725 -0.2971  0.2257
  971Sol     OW 6811   1.964   3.224   4.023 -0.0089 -0.2403 -0.1151
  971Sol     HW 6812   1.879   3.268   4.020  0.2613  0.3651  0.9529
  971Sol     HW 6813   1.942   3.132   4.037 -0.4845 -0.0604  0.3391
  971Sol     MW 6814   1.954   3.219   4.024  0.4177  0.0388  0.6148
  972Sol     OW 6815   2.341   2.281   3.073 -0.0508  0.1812  0.7308
  972Sol     HW 6816   2.282   2.216   3.034 -0.5745  0.0008  1.8140
  972Sol     HW 6817   2.410   2.292   3.008 -0.5326 -0.6599  0.0645
  972Sol     MW 6818   2.342   2.276   3.064 -0.0176 -0.3239 -0.0302
  973Sol     OW 6819   1.893   0.455   1.976  0.0209 -0.2525 -0.1244
  973Sol     HW 6820   1.810   0.431   2.018 -0.0055  0.1273  0.0429
  973Sol     HW 6821   1.883   0.425   1.886  0.8534 -2.8812  0.6150
  973Sol     MW 6822   1.885   0.450   1.972  0.1868 -0.5752  0.1051
  974Sol     OW 6823   0.270   1.556   6.683 -0.8227 -0.2186  0.4651
  974Sol     HW 6824   0.342   1.582   6.740  0.4659  1.0096 -1.6500
  974Sol     HW 6825   0.261   1.462   6.697  1.3421 -0.4289  0.6388
  974Sol     MW 6826   0.275   1.550   6.689  0.5906 -0.0015 -0.2080
  975Sol     OW 6827   0.048   2.995   6.453  0.2255 -0.3330  0.4324
  975Sol     HW 6828   0.061   2.959   6.540  3.2530  0.4417  0.3637
  975Sol     HW 6829   0.121   2.960   6.402 -0.8658  0.1374 -1.4966
  975Sol     MW 6830   0.056   2.989   6.456 -0.1938  0.4390 -0.2303
  976Sol     OW 6831   3.220   2.702   2.237  0.0825  0.5553  0.3608
  976Sol     HW 6832   3.267   2.785   2.247  0.4540  0.1299  2.3473
  976Sol     HW 6833   3.193   2.701   2.146  0.2438  2.7779  0.2605
  976Sol     MW 6834   3.222   2.710   2.230  0.2667  0.2583  0.2696
  977Sol     OW 6835   3.164   3.447   1.340  0.8452 -0.7654 -0.2352
  977Sol     HW 6836   3.074   3.468   1.366  0.1155 -0.9733 -2.4875
  977Sol     HW 6837   3.158   3.361   1.299  1.6140  0.2778 -2.6491
  977Sol     MW 6838   3.156   3.441   1.338 -0.2785 -0.3157  0.2632
  978Sol     OW 6839   2.156   1.540   4.697 -0.6614 -0.7756 -0.1188
  978Sol     HW 6840   2.106   1.600   4.753 -0.9477 -1.2885  0.1763
  978Sol     HW 6841   2.098   1.524   4.623 -0.2277  0.0127 -0.6382
  978Sol     MW 6842   2.146   1.544   4.695 -0.3492  0.5752  0.7600
  979Sol     OW 6843   0.065   0.583   3.844  0.4011 -0.5128  0.4475
  979Sol     HW 6844   0.024   0.651   3.898  1.0332 -0.7521  1.2304
  979Sol     HW 6845   0.030   0.501   3.879 -1.3091 -0.5549 -1.2808
  979Sol     MW 6846   0.058   0.581   3.852  0.0760  0.2049 -0.3583
  980Sol     OW 6847   0.082   0.943   2.677 -0.4293  0.9201  0.0691
  980Sol     HW 6848   0.168   0.942   2.718 -0.0968 -0.2485 -0.6453
  980Sol     HW 6849   0.022   0.917   2.747  0.1451 -1.1686 -0.1893
  980Sol     MW 6850   0.084   0.941   2.687  0.0563 -0.1250 -0.6993
  981Sol     OW 6851   1.157   1.738   1.300 -0.2253 -0.1210  1.0903
  981Sol     HW 6852   1.241   1.780   1.321  1.2943 -2.5839  0.2585
  981Sol     HW 6853   1.113   1.799   1.240  1.3288  0.8608  0.9184
  981Sol     MW 6854   1.161   1.747   1.296 -0.3837 -0.1668 -0.8373
  982Sol     OW 6855   0.507   0.217   9.337  0.6284 -0.0840 -0.1866
  982Sol     HW 6856   0.450   0.255   9.404  0.6378  1.1073 -0.8312
  982Sol     HW 6857   0.447   0.177   9.274  0.6391 -1.6313  0.7781
  982Sol     MW 6858   0.496   0.217   9.337 -0.2651 -0.5077  0.2837
  983Sol     OW 6859   1.393   2.565   2.297 -0.3377  1.1794 -0.3430
  983Sol     HW 6860   1.303   2.550   2.270 -0.2188  2.6908 -1.6268
  983Sol     HW 6861   1.395   2.656   2.326  0.4540  0.7346  1.0329
  983Sol     MW 6862   1.385   2.572   2.297  0.0831 -0.1197 -0.1138
  984Sol     OW 6863   0.784   0.718   6.234  0.4896  0.8540  0.4747
  984Sol     HW 6864   0.711   0.753   6.182  1.3850  1.4263 -0.4140
  984Sol     HW 6865   0.760   0.736   6.325 -0.3867  1.2165  0.1789
  984Sol     MW 6866   0.775   0.722   6.237  0.3482  0.2467  0.3602
  985Sol     OW 6867   0.268   0.816   3.331  0.1684  0.1394  0.6482
  985Sol     HW 6868   0.173   0.804   3.338  0.2009  0.8879  2.6914
  985Sol     HW 6869   0.305   0.752   3.392  0.8605  1.4174  1.6057
  985Sol     MW 6870   0.263   0.810   3.337  0.3795 -0.4368 -0.0796
  986Sol     OW 6871   1.426   0.137   6.600 -0.0686 -0.4148  0.3397
  986Sol     HW 6872   1.484   0.061   6.596 -0.2351 -0.5343  0.2077
  986Sol     HW 6873   1.340   0.101   6.618 -0.2363 -0.2957 -0.2113
  986Sol     MW 6874   1.424   0.127   6.601  0.2633 -0.4058  0.7755
  987Sol     OW 6875   0.664   0.737   3.519  0.2010  0.1512 -0.1171
  987Sol     HW 6876   0.693   0.687   3.443  2.4220 -0.0097  0.8113
  987Sol     HW 6877   0.683   0.828   3.495 -1.8273  0.3956 -0.9180
  987Sol     MW 6878   0.668   0.741   3.510  0.0858 -0.3000  0.0604
  988Sol     OW 6879   3.164   0.057   5.464 -0.4082  0.2542  0.0467
  988Sol     HW 6880   3.148   0.065   5.558 -1.2290 -0.0815 -0.0628
  988Sol     HW 6881   3.128  -0.029   5.441 -0.1731  0.3165 -0.5734
  988Sol     MW 6882   3.160   0.050   5.470  0.7166 -0.4804  0.3331
  989Sol     OW 6883   2.390   1.376   6.198 -0.3253  0.0128  0.3325
  989Sol     HW 6884   2.405   1.466   6.227 -0.7775  0.1320  0.1933
  989Sol     HW 6885   2.395   1.324   6.278 -1.4659  0.3282  0.6073
  989Sol     MW 6886   2.392   1.379   6.208  0.0341  0.0207  0.8098
  990Sol     OW 6887   1.088   0.130   5.213  0.2840 -0.8094  0.4590
  990Sol     HW 6888   1.124   0.112   5.300 -1.0920 -1.0921  0.9827
  990Sol     HW 6889   0.994   0.138   5.227  0.0812 -0.5516 -0.9630
  990Sol     MW 6890   1.083   0.129   5.222 -0.3568 -0.0722  0.0351
  991Sol     OW 6891   1.747   1.659   6.175 -0.2717 -0.3856  0.2430
  991Sol     HW 6892   1.766   1.707   6.094  0.1604 -0.4736  0.2932
  991Sol     HW 6893   1.813   1.690   6.237 -0.2637 -0.7294  0.4040
  991Sol     MW 6894   1.754   1.666   6.173 -0.2764 -0.1188 -0.5181
  992Sol     OW 6895   2.054   0.636   7.559  0.1159 -0.4407  0.3759
  992Sol     HW 6896   2.099   0.554   7.534  1.4498  0.2160  0.5610
  992Sol     HW 6897   2.018   0.618   7.645 -1.3747 -1.5126 -0.4481
  992Sol     MW 6898   2.055   0.627   7.564  0.1257 -0.2761 -0.0022
  993Sol     OW 6899   2.043   0.115   7.495 -0.1389 -0.7083  0.1025
  993Sol     HW 6900   1.989   0.127   7.417  1.1206  0.1615 -0.6455
  993Sol     HW 6901   2.021   0.189   7.552 -2.4603 -2.3435  1.4458
  993Sol     MW 6902   2.036   0.123   7.493  0.2130  0.2892  0.2757
  994Sol     OW 6903   0.100   2.477   2.293  0.1485 -0.0488  0.2535
  994Sol     HW 6904   0.160   2.493   2.221  1.6150 -0.5186  1.3554
  994Sol     HW 6905   0.032   2.544   2.283 -1.1802 -1.7579 -3.1509
  994Sol     MW 6906   0.099   2.484   2.286 -0.4067 -0.1743  0.1187
  995Sol     OW 6907   2.911   1.144   2.748 -0.3193 -0.6461  0.1761
  995Sol     HW 6908   2.905   1.158   2.653 -1.8319  1.4742  0.5530
  995Sol     HW 6909   2.849   1.073   2.765 -0.4015 -0.7060 -0.3364
  995Sol     MW 6910   2.905   1.139   2.741  0.3570  0.0694 -0.1937
  996Sol     OW 6911   3.064   0.865   6.227 -0.2994  0.1545 -0.3553
  996Sol     HW 6912   3.058   0.776   6.263 -0.1914  0.7055  1.0435
  996Sol     HW 6913   3.142   0.863   6.172  1.6793  0.2910  2.3428
  996Sol     MW 6914   3.070   0.857   6.225  0.0904 -0.7418 -0.0352
  997Sol     OW 6915   2.550   0.935   9.810 -0.2745 -0.0315  0.7624
  997Sol     HW 6916   2.536   1.026   9.786  1.1800  0.0743  0.2122
  997Sol     HW 6917   2.484   0.916   9.877 -1.4447  1.0236 -0.0774
  997Sol     MW 6918   2.543   0.941   9.814 -0.1620  0.5048  0.1071
  998Sol     OW 6919   2.383   3.255   7.743  0.0267 -0.2475 -0.0493
  998Sol     HW 6920   2.305   3.258   7.798 -0.8231 -0.0711 -1.2625
  998Sol     HW 6921   2.398   3.346   7.719 -0.0721 -0.4245 -0.7759
  998Sol     MW 6922   2.377   3.264   7.746 -0.2239 -0.1083 -0.4514
  999Sol     OW 6923   0.999   2.867   8.722 -0.0027 -0.1885  0.3331
  999Sol     HW 6924   1.089   2.895   8.736 -0.4368  0.9368  0.9487
  999Sol     HW 6925   1.006   2.782   8.680  1.3474  0.0065  0.1621
  999Sol     MW 6926   1.008   2.862   8.720  0.0901  0.3888 -0.1083
 1000Sol     OW 6927   0.764   0.681   3.766 -0.1583  0.8430 -0.0831
 1000Sol     HW 6928   0.711   0.720   3.696 -0.0010  0.5291 -0.3790
 1000Sol     HW 6929   0.700   0.652   3.831 -0.3426  0.5527 -0.3937
 1000Sol     MW 6930   0.754   0.682   3.765  0.1001  0.2117  0.3112
 1001Sol     OW 6931   1.347   0.996   7.697 -0.2198  0.3052 -0.5051
 1001Sol     HW 6932   1.365   1.016   7.605 -0.2921 -0.7154 -0.7532
 1001Sol     HW 6933   1.420   1.035   7.745  0.0232  0.5071 -1.0390
 1001Sol     MW 6934   1.355   1.001   7.693 -0.1282  0.1725  0.0317
 1002Sol     OW 6935   2.068   0.186   3.312  0.0148  0.3515  0.5365
 1002Sol     HW 6936   1.987   0.209   3.357 -0.2536  1.9846 -0.7430
 1002Sol     HW 6937   2.124   0.263   3.321  0.2684  0.3869 -1.1786
 1002Sol     MW 6938   2.066   0.195   3.317 -0.4924 -0.2391  0.4629
 1003Sol     OW 6939   1.220   2.008   4.724 -0.7462 -0.3820  0.5074
 1003Sol     HW 6940   1.214   2.067   4.799 -0.1287 -0.2393  0.4478
 1003Sol     HW 6941   1.210   2.065   4.647  2.3724  0.0273  0.3707
 1003Sol     MW 6942   1.218   2.018   4.724 -0.0357 -0.2775 -0.6612
 1004Sol     OW 6943   0.725   0.215   9.738  0.9483 -0.2726  0.2579
 1004Sol     HW 6944   0.749   0.199   9.647 -1.0032 -0.0735 -0.3264
 1004Sol     HW 6945   0.765   0.143   9.787  0.2196 -1.5983 -1.0509
 1004Sol     MW 6946   0.731   0.207   9.734 -0.0618  0.2853 -0.1814
 1005Sol     OW 6947   0.755   1.499   7.902  0.2469  0.0796  0.2107
 1005Sol     HW 6948   0.782   1.580   7.861 -1.2699  0.0061 -0.9874
 1005Sol     HW 6949   0.704   1.454   7.835  0.6561 -1.6368  1.0234
 1005Sol     MW 6950   0.753   1.502   7.892  0.3004  0.2288 -0.5013
 1006Sol     OW 6951   1.317   3.114   2.831 -0.4394 -0.0632  0.4314
 1006Sol     HW 6952   1.253   3.098   2.761  0.0377 -0.2780  0.0480
 1006Sol     HW 6953   1.369   3.034   2.835  0.8634  0.7260 -0.3644
 1006Sol     MW 6954   1.316   3.105   2.825  0.3959 -0.2733 -0.3060
 1007Sol     OW 6955   1.160   1.428   6.341  0.0001 -0.3626 -0.5891
 1007Sol     HW 6956   1.205   1.385   6.268  0.5934 -2.2026  0.7997
 1007Sol     HW 6957   1.202   1.513   6.349 -0.8665  0.3327 -3.1221
 1007Sol     MW 6958   1.168   1.432   6.335  0.4700 -0.1153  0.0968
 1008Sol     OW 6959   2.797   0.155   3.313 -0.0179 -0.5070 -0.0157
 1008Sol     HW 6960   2.743   0.229   3.342 -0.8936 -1.1160 -0.0751
 1008Sol     HW 6961   2.746   0.077   3.338  1.4369 -1.1240  1.1332
 1008Sol     MW 6962   2.787   0.155   3.318 -0.0399  0.5148  0.4745
 1009Sol     OW 6963   0.229   1.632   2.941  0.6131  0.1689 -0.2338
 1009Sol     HW 6964   0.161   1.699   2.954 -0.0774 -0.8261  1.3469
 1009Sol     HW 6965   0.310   1.676   2.966  0.6491  1.4545 -2.3952
 1009Sol     MW 6966   0.230   1.642   2.944  0.3469  0.0178  0.0715
 1010Sol     OW 6967   3.284   0.815   3.977 -0.2385  0.6666  0.5789
 1010Sol     HW 6968   3.346   0.887   3.972 -0.1075  0.5026 -0.2706
 1010Sol     HW 6969   3.216   0.837   3.913 -1.1313  0.9131  1.6029
 1010Sol     MW 6970   3.284   0.823   3.971  0.2083  0.5293 -0.0174
 1011Sol     OW 6971   0.358   1.974   2.380 -0.3106 -0.5677 -0.2561
 1011Sol     HW 6972   0.290   1.941   2.440 -0.3905  1.7101  0.9707
 1011Sol     HW 6973   0.432   1.995   2.437  0.5364 -0.7136 -1.2842
 1011Sol     MW 6974   0.358   1.973   2.391 -0.6011  0.1246  0.5338
 1012Sol     OW 6975   0.980   3.291   9.488  0.0150  0.2202  0.2812
 1012Sol     HW 6976   0.952   3.343   9.413 -1.1110 -1.4117 -0.4420
 1012Sol     HW 6977   1.003   3.206   9.452 -1.5218 -0.9050  1.9140
 1012Sol     MW 6978   0.980   3.288   9.478 -0.1274  0.1217 -0.3306
 1013Sol     OW 6979   0.235   0.278   2.562 -0.0935 -1.0328 -0.2370
 1013Sol     HW 6980   0.266   0.300   2.649 -1.9358 -2.4972  0.8260
 1013Sol     HW 6981   0.226   0.362   2.517  1.9991 -0.3570  0.5652
 1013Sol     MW 6982   0.237   0.287   2.566 -0.0063  0.1765 -0.5946
 1014Sol     OW 6983   2.927   2.010   3.551  0.0322 -0.6093 -0.4204
 1014Sol     HW 6984   2.974   2.029   3.469  0.7395  1.3935  0.4388
 1014Sol     HW 6985   2.956   1.922   3.574  0.2635 -0.9784 -2.0305
 1014Sol     MW 6986   2.934   2.004   3.545  0.4306 -0.2652 -0.3879
 1015Sol     OW 6987   2.270   2.906   5.693  0.2460 -0.1471  0.1682
 1015Sol     HW 6988   2.319   2.834   5.652 -0.9519 -2.0513  2.0120
 1015Sol     HW 6989   2.184   2.869   5.712 -0.3352  1.7433  1.3155
 1015Sol     MW 6990   2.267   2.896   5.691  0.5107 -0.2272  0.1631
 1016Sol     OW 6991   0.465   0.155   4.462  0.0249  0.7818  0.2881
 1016Sol     HW 6992   0.430   0.182   4.377  0.7531 -1.0633 -0.6173
 1016Sol     HW 6993   0.452   0.060   4.464  1.2366  0.6322  1.6780
 1016Sol     MW 6994   0.461   0.149   4.455 -1.0614 -0.7502 -0.1836
 1017Sol     OW 6995   1.588   2.862   1.777 -0.0516  0.4767  0.5880
 1017Sol     HW 6996   1.509   2.816   1.805  0.4466 -0.1381  0.9759
 1017Sol     HW 6997   1.650   2.793   1.756  0.4929  0.9652  0.5800
 1017Sol     MW 6998   1.586   2.852   1.778  0.6136 -0.5352  0.0087
 1018Sol     OW 6999   2.737   1.585   8.907 -0.1996 -0.4871  0.6809
 1018Sol     HW 7000   2.794   1.608   8.980  1.3603 -1.5255 -0.2025
 1018Sol     HW 7001   2.703   1.669   8.876  2.9157  0.4038 -0.4535
 1018Sol     MW 7002   2.739   1.595   8.911  0.1265  0.1382  0.2837
 1019Sol     OW 7003   0.328   1.953   3.153  0.2597  0.0465 -0.5452
 1019Sol     HW 7004   0.364   1.899   3.224 -0.1526  0.0297 -0.3516
 1019Sol     HW 7005   0.283   2.024   3.197 -1.1695 -0.7139 -0.7721
 1019Sol     MW 7006   0.328   1.954   3.164 -0.0536  0.5372  0.3861
 1020Sol     OW 7007   1.142   3.331   5.121  0.2712 -0.7149 -0.3950
 1020Sol     HW 7008   1.113   3.416   5.155  1.4252 -0.7943  0.8282
 1020Sol     HW 7009   1.083   3.313   5.048  0.1093  1.2157 -0.7660
 1020Sol     MW 7010   1.134   3.337   5.117  0.2447 -0.0266  0.1819
 1021Sol     OW 7011   0.458   2.633   7.877 -0.0680 -0.4627 -0.8082
 1021Sol     HW 7012   0.366   2.606   7.883  0.3797 -1.7692  0.3426
 1021Sol     HW 7013   0.457   2.707   7.817 -2.2976  1.4686  1.4985
 1021Sol     MW 7014   0.449   2.637   7.872 -0.5340 -0.4567 -0.3022
 1022Sol     OW 7015   0.476   2.602   4.363  0.8145 -0.0332 -0.4997
 1022Sol     HW 7016   0.572   2.612   4.358  0.8470 -0.5045 -0.7452
 1022Sol     HW 7017   0.449   2.675   4.419  1.0165  1.7846 -2.6753
 1022Sol     MW 7018   0.483   2.610   4.368 -0.1013  0.0801  0.5516
 1023Sol     OW 7019   0.860   3.182   5.284 -0.0641 -0.4335  0.3899
 1023Sol     HW 7020   0.779   3.168   5.334  1.2954  0.0449  2.7680
 1023Sol     HW 7021   0.867   3.277   5.276 -0.6546 -0.5254 -1.3901
 1023Sol     MW 7022   0.853   3.189   5.288  0.0030  0.6251 -0.6880
 1024Sol     OW 7023   0.777   0.199   8.214  0.0357 -0.0661  0.6685
 1024Sol     HW 7024   0.803   0.110   8.238  0.1833  0.0066  0.7785
 1024Sol     HW 7025   0.747   0.239   8.295  2.6404  0.9085  1.2103
 1024Sol     MW 7026   0.777   0.195   8.223 -0.4092  0.9270  0.0292
 1025Sol     OW 7027   0.525   2.864   4.111  0.2137  0.1365 -0.4943
 1025Sol     HW 7028   0.585   2.849   4.184  2.5266 -0.1130 -2.3483
 1025Sol     HW 7029   0.565   2.816   4.038 -2.6877 -0.6592 -1.6058
 1025Sol     MW 7030   0.534   2.859   4.111  0.0650 -1.1728 -0.2275
 1026Sol     OW 7031   0.272   1.004   8.900  0.3739  0.2293  0.5161
 1026Sol     HW 7032   0.229   1.083   8.867 -2.2203 -0.6581  1.6707
 1026Sol     HW 7033   0.263   1.010   8.995 -0.4193 -1.7710  0.5746
 1026Sol     MW 7034   0.267   1.012   8.906  0.0247  0.0901 -0.7722
 1027Sol     OW 7035   2.872   3.343   2.406  0.5828  0.5643 -0.4658
 1027Sol     HW 7036   2.911   3.406   2.466 -0.3946  0.5420  0.1876
 1027Sol     HW 7037   2.864   3.391   2.323  0.8927  0.9430 -0.2789
 1027Sol     MW 7038   2.875   3.353   2.404 -0.1128  0.1244  0.1248
 1028Sol     OW 7039   0.479   0.278   1.536  0.3548  0.2705 -0.1950
 1028Sol     HW 7040   0.472   0.370   1.510  1.0693 -0.1469 -1.9669
 1028Sol     HW 7041   0.572   0.265   1.555  0.3631 -0.2221 -0.5530
 1028Sol     MW 7042   0.486   0.285   1.535  0.1235  0.4404 -0.1424
 1029Sol     OW 7043   1.782   0.753   9.589 -0.5837 -0.4599 -0.2846
 1029Sol     HW 7044   1.726   0.711   9.655  0.7354 -0.5589  0.8066
 1029Sol     HW 7045   1.723   0.773   9.516 -1.6847 -2.1468  0.1154
 1029Sol     MW 7046   1.772   0.751   9.589 -0.3191 -0.3112 -1.1600
 1030Sol     OW 7047   0.722   2.835   3.172  0.6009 -0.0345  0.2177
 1030Sol     HW 7048   0.646   2.853   3.227  1.0285  1.5884  0.3201
 1030Sol     HW 7049   0.695   2.763   3.116 -0.6591 -0.1499  0.9551
 1030Sol     MW 7050   0.713   2.831   3.172 -0.2901 -0.1201 -0.3831
 1031Sol     OW 7051   1.065   2.604   3.202  0.0186  0.4966  0.1044
 1031Sol     HW 7052   1.109   2.666   3.261  3.3875 -1.0736 -0.6241
 1031Sol     HW 7053   1.061   2.649   3.118 -3.3754  2.1255  1.0399
 1031Sol     MW 7054   1.069   2.613   3.200 -0.6679 -0.0106  0.1357
 1032Sol     OW 7055   0.251   2.178   1.863  0.4433  0.6494 -0.1268
 1032Sol     HW 7056   0.276   2.270   1.864 -1.3246  1.1329  3.2781
 1032Sol     HW 7057   0.334   2.131   1.874  1.1329  1.8664 -0.0275
 1032Sol     MW 7058   0.261   2.182   1.864 -0.7201 -0.4853 -0.1885
 1033Sol     OW 7059   1.106   1.131   6.773  0.1436  0.2466  0.3679
 1033Sol     HW 7060   1.129   1.191   6.702  0.8222  1.6530  1.7813
 1033Sol     HW 7061   1.058   1.184   6.836 -1.0584 -1.1539  0.6767
 1033Sol     MW 7062   1.104   1.141   6.772  0.2936 -0.0258 -0.2019
 1034Sol     OW 7063   2.973   2.691   2.733 -0.5215  0.2768  0.5519
 1034Sol     HW 7064   2.974   2.733   2.819  0.0027 -0.9118  1.1413
 1034Sol     HW 7065   3.063   2.700   2.701 -0.6437  0.4556  0.2578
 1034Sol     MW 7066   2.981   2.696   2.738 -0.1453  0.1478  0.1689
 1035Sol     OW 7067   1.983   1.030   5.772  0.9209  0.4225  0.1494
 1035Sol     HW 7068   1.896   1.006   5.804  0.0980  0.2284 -2.1211
 1035Sol     HW 7069   1.987   1.125   5.779  0.6111  0.4052  0.5093
 1035Sol     MW 7070   1.976   1.036   5.775 -0.0971  0.2538 -0.3682
 1036Sol     OW 7071   1.084   0.791   3.032  0.0937  0.3863  0.1348
 1036Sol     HW 7072   1.129   0.871   3.061  0.4920  1.4149 -3.0925
 1036Sol     HW 7073   1.138   0.757   2.961 -1.4696 -1.2927 -0.2991
 1036Sol     MW 7074   1.093   0.795   3.028 -0.4006 -0.1636 -0.2638
 1037Sol     OW 7075   0.972   2.389   2.953  0.0045 -0.1976  0.2305
 1037Sol     HW 7076   0.925   2.465   2.919  0.7479 -0.1843 -0.7940
 1037Sol     HW 7077   1.001   2.416   3.040  0.4282  0.7699 -0.1960
 1037Sol     MW 7078   0.971   2.398   2.958 -0.4666  0.3573  0.5631
 1038Sol     OW 7079   2.148   0.659   3.069 -0.0304 -0.1309  0.2231
 1038Sol     HW 7080   2.214   0.660   2.999 -1.7081 -0.1680 -1.4049
 1038Sol     HW 7081   2.169   0.735   3.123  0.9899  0.1978 -0.6266
 1038Sol     MW 7082   2.156   0.666   3.067  0.3073 -0.2139  0.4235
 1039Sol     OW 7083   2.559   1.745   4.829  0.5254 -0.1977  0.3944
 1039Sol     HW 7084   2.475   1.708   4.802  1.2941 -2.6950  1.3080
 1039Sol     HW 7085   2.615   1.737   4.752  0.6524 -0.8499  0.5516
 1039Sol     MW 7086   2.556   1.741   4.820 -0.1762  0.2458 -0.0245
 1040Sol     OW 7087   2.973   2.690   5.924  0.7152 -0.3035 -0.3352
 1040Sol     HW 7088   3.002   2.667   5.835  0.2481  1.8539 -1.0685
 1040Sol     HW 7089   3.030   2.762   5.950  1.9179 -1.9634  1.7852
 1040Sol     MW 7090   2.981   2.694   5.918  0.4119 -0.6649  0.3417
 1041Sol     OW 7091   0.756   0.206   9.447  0.3625  0.2546 -0.1767
 1041Sol     HW 7092   0.664   0.196   9.420 -0.1058  1.2878  0.9564
 1041Sol     HW 7093   0.802   0.134   9.404 -0.5576  1.1272 -2.7032
 1041Sol     MW 7094   0.752   0.199   9.441  0.6294  0.0453 -0.0113
 1042Sol     OW 7095   2.970   2.991   6.114 -0.0899 -0.2325  0.4467
 1042Sol     HW 7096   3.000   3.016   6.201  0.3023  0.1291  0.2163
 1042Sol     HW 7097   2.891   2.940   6.128  0.4776 -0.9414  1.0588
 1042Sol     MW 7098   2.966   2.989   6.123 -0.1058  0.2229 -0.2445
 1043Sol     OW 7099   1.079   0.417   1.684  0.1015  0.0394 -0.1268
 1043Sol     HW 7100   1.121   0.343   1.726  0.9331  0.3465 -0.4183
 1043Sol     HW 7101   1.140   0.444   1.616 -0.7143  0.2669 -0.7844
 1043Sol     MW 7102   1.088   0.413   1.681 -0.0715  0.1104 -0.3411
 1044Sol     OW 7103   3.033   1.242   2.109  0.1453  0.8612  0.2417
 1044Sol     HW 7104   2.994   1.288   2.034  0.3508 -0.4673 -0.7018
 1044Sol     HW 7105   3.123   1.223   2.082  0.3968  0.8733  1.0564
 1044Sol     MW 7106   3.037   1.245   2.100  0.2775 -0.4541 -0.0639
 1045Sol     OW 7107   1.223   0.450   5.963 -0.6603 -0.3135 -0.3821
 1045Sol     HW 7108   1.248   0.505   6.037 -1.3240 -0.4764 -0.0257
 1045Sol     HW 7109   1.215   0.362   6.001 -0.3088 -0.5261 -0.7972
 1045Sol     MW 7110   1.224   0.447   5.973  0.8110 -0.0340  0.7094
 1046Sol     OW 7111   1.401   3.079   9.141  0.9841  0.1970  0.2748
 1046Sol     HW 7112   1.416   3.024   9.063 -2.2030 -0.9727  0.4041
 1046Sol     HW 7113   1.398   3.017   9.214 -0.6598  0.7324  0.6906
 1046Sol     MW 7114   1.402   3.068   9.140 -0.5712  0.1238  0.7002
 1047Sol     OW 7115   0.305   2.797   4.460  0.1457  0.1851  0.3268
 1047Sol     HW 7116   0.221   2.755   4.449 -0.5203  1.4966  0.2797
 1047Sol     HW 7117   0.298   2.879   4.411  1.4742  0.2563  0.2303
 1047Sol     MW 7118   0.297   2.801   4.455 -0.4863  0.1401  0.2032
 1048Sol     OW 7119   2.790   2.696   9.896  0.7006  0.5932 -0.7340
 1048Sol     HW 7120   2.861   2.655   9.846 -1.5489 -1.5268 -2.3426
 1048Sol     HW 7121   2.774   2.635   9.968  0.8139  1.3036 -0.1025
 1048Sol     MW 7122   2.795   2.687   9.898  0.1913 -0.9018 -0.6089
 1049Sol     OW 7123   0.623   3.387   7.895 -0.1167  0.1373 -0.4332
 1049Sol     HW 7124   0.542   3.354   7.933 -0.2600 -0.9918 -1.6663
 1049Sol     HW 7125   0.630   3.341   7.812  0.9054  1.5214 -1.1238
 1049Sol     MW 7126   0.616   3.380   7.891  0.2731  0.2749  0.5382
 1050Sol     OW 7127   1.804   0.289   4.968  0.1256 -0.0282 -0.3221
 1050Sol     HW 7128   1.765   0.370   5.001  2.9789  1.1448  0.3070
 1050Sol     HW 7129   1.741   0.221   4.992 -1.3721  1.7460  0.9415
 1050Sol     MW 7130   1.795   0.291   4.973  0.9899 -0.0231  0.1285
 1051Sol     OW 7131   0.252   3.086   9.202  0.1727  0.0805 -0.3626
 1051Sol     HW 7132   0.159   3.083   9.226  0.5371 -0.2521  1.0346
 1051Sol     HW 7133   0.266   3.006   9.152 -0.2415  0.0125 -0.3709
 1051Sol     MW 7134   0.245   3.079   9.200  0.3507 -0.0326  0.6735
 1052Sol     OW 7135   2.342   2.710   3.071  0.4389 -0.0908  0.1362
 1052Sol     HW 7136   2.283   2.662   3.013  2.2182 -1.4072 -0.6435
 1052Sol     HW 7137   2.304   2.697   3.159 -2.6795  2.5434 -0.7287
 1052Sol     MW 7138   2.333   2.704   3.074  0.1966  0.1129  0.1164
 1053Sol     OW 7139   3.300   0.871   4.668 -0.1644  0.4928 -0.1713
 1053Sol     HW 7140   3.360   0.815   4.717  1.1262  1.6487 -0.4108
 1053Sol     HW 7141   3.238   0.810   4.627  0.9969 -0.7187 -0.1403
 1053Sol     MW 7142   3.300   0.861   4.669 -0.2191 -0.4566  0.6717
 1054Sol     OW 7143   2.161   1.725   6.789 -0.2915 -0.1439 -0.5860
 1054Sol     HW 7144   2.099   1.696   6.722 -1.0699 -0.2967  0.1950
 1054Sol     HW 7145   2.184   1.645   6.836 -1.1528  0.2288  0.4960
 1054Sol     MW 7146   2.157   1.715   6.788  0.0256 -0.0330  0.8703
 1055Sol     OW 7147   2.679   1.760   1.683 -0.2952 -0.2979  0.0902
 1055Sol     HW 7148   2.756   1.747   1.739 -0.4058 -0.4895  0.1981
 1055Sol     HW 7149   2.642   1.843   1.712  0.6775  0.4944 -0.9056
 1055Sol     MW 7150   2.683   1.766   1.691  0.7896  0.0670 -0.4277
 1056Sol     OW 7151   0.036   3.346   8.880  0.4400  0.0831  0.4436
 1056Sol     HW 7152   0.108   3.342   8.944  0.2091  0.0734  0.7048
 1056Sol     HW 7153   0.001   3.434   8.889 -0.5592 -0.3869  1.4073
 1056Sol     MW 7154   0.039   3.353   8.887 -0.3427  0.5700  0.4155
 1057Sol     OW 7155   0.593   0.914   2.794  0.6698 -0.0755  0.2141
 1057Sol     HW 7156   0.664   0.877   2.847  0.7593  0.9332  0.8128
 1057Sol     HW 7157   0.614   1.007   2.787 -0.7525  0.2969  0.6557
 1057Sol     MW 7158   0.601   0.919   2.798 -0.2786  1.0948 -0.1302
 1058Sol     OW 7159   0.823   3.340   4.420  0.2312 -0.4121 -0.4658
 1058Sol     HW 7160   0.876   3.408   4.461  1.1966 -0.9069 -0.8787
 1058Sol     HW 7161   0.737   3.348   4.463  1.2861 -1.1153  1.8688
 1058Sol     MW 7162   0.820   3.347   4.428  0.3169 -0.2429  0.3366
 1059Sol     OW 7163   2.977   0.707   8.274  0.3612 -0.1516 -0.6491
 1059Sol     HW 7164   2.913   0.653   8.320  0.3046  0.2203 -0.2877
 1059Sol     HW 7165   2.928   0.747   8.202  0.2525 -0.0834 -0.5368
 1059Sol     MW 7166   2.967   0.706   8.271  0.3171 -0.5663 -0.1088
 1060Sol     OW 7167   1.387   2.487   1.760  0.2771  0.0271  0.7812
 1060Sol     HW 7168   1.298   2.458   1.784 -0.5258  0.9909 -0.9343
 1060Sol     HW 7169   1.411   2.549   1.829 -0.4892 -0.0279  1.1065
 1060Sol     MW 7170   1.381   2.490   1.768  0.6470  0.1458 -0.5760
 1061Sol     OW 7171   2.237   1.875   8.581  0.0441  0.0209 -0.7000
 1061Sol     HW 7172   2.273   1.791   8.554  0.0635 -1.3472  3.1983
 1061Sol     HW 7173   2.171   1.852   8.647  0.2778  3.0853  0.6630
 1061Sol     MW 7174   2.234   1.865   8.585 -0.0956 -0.1813  0.0115
 1062Sol     OW 7175   0.191   2.281   9.141 -0.2183  0.0945 -0.0479
 1062Sol     HW 7176   0.134   2.308   9.213  0.8691 -1.5701  1.5057
 1062Sol     HW 7177   0.268   2.337   9.150 -0.4547  0.4727 -0.4290
 1062Sol     MW 7178   0.193   2.288   9.149 -0.5949  0.0724 -0.3823
 1063Sol     OW 7179   0.894   2.618   2.092  0.3017 -0.0189  0.3765
 1063Sol     HW 7180   0.828   2.661   2.038  1.4263  2.0946  0.6477
 1063Sol     HW 7181   0.894   2.527   2.062 -2.6106 -0.0339  0.2731
 1063Sol     MW 7182   0.888   2.613   2.084  0.2932  0.4414 -0.0308
 1064Sol     OW 7183   1.686   2.310   1.805  0.2728 -0.1710  0.2667
 1064Sol     HW 7184   1.756   2.250   1.832 -0.8027 -0.8168  1.6858
 1064Sol     HW 7185   1.607   2.275   1.848 -0.8433  0.7682 -0.9953
 1064Sol     MW 7186   1.685   2.301   1.811  0.0188 -0.7044 -0.3156
 1065Sol     OW 7187   1.069   2.212   7.458  0.7056  0.5862  0.5892
 1065Sol     HW 7188   1.153   2.245   7.427  1.9955 -1.1440  2.1630
 1065Sol     HW 7189   1.068   2.120   7.433 -0.2956  0.3538  1.4335
 1065Sol     MW 7190   1.076   2.207   7.453 -0.2393 -1.0701 -0.1758
 1066Sol     OW 7191   2.922   2.424   3.449 -0.3871  0.0574 -0.4009
 1066Sol     HW 7192   2.952   2.507   3.412  0.2493  0.4452  0.9507
 1066Sol     HW 7193   2.989   2.361   3.424 -0.3678  0.1531 -0.5907
 1066Sol     MW 7194   2.931   2.426   3.444  0.1330 -0.0900 -0.1460
 1067Sol     OW 7195   0.219   3.295   7.346 -0.5087 -0.7435 -0.4828
 1067Sol     HW 7196   0.279   3.360   7.310 -0.1005 -1.6853 -1.5124
 1067Sol     HW 7197   0.161   3.272   7.273 -1.9276 -0.1050  0.3992
 1067Sol     MW 7198   0.219   3.299   7.336  0.2655  0.1764  0.1011
 1068Sol     OW 7199   1.099   0.204   4.834  0.0798  0.1608  0.4871
 1068Sol     HW 7200   1.134   0.116   4.817  0.3757  0.3532  0.0950
 1068Sol     HW 7201   1.109   0.250   4.751  1.6027  1.1401  1.1909
 1068Sol     MW 7202   1.103   0.200   4.825 -0.2721  0.6747 -0.1835
 1069Sol     OW 7203   0.101   0.296   9.144 -0.0376  0.1481 -0.1287
 1069Sol     HW 7204   0.047   0.252   9.078  0.0104  1.2539 -0.9267
 1069Sol     HW 7205   0.049   0.291   9.224 -0.1448 -1.1239 -0.2639
 1069Sol     MW 7206   0.091   0.291   9.145  0.0062  0.4184  0.2938
 1070Sol     OW 7207   2.291   0.315   8.159  0.2866  0.4427  0.0129
 1070Sol     HW 7208   2.235   0.279   8.091 -0.5463 -0.0555  0.9511
 1070Sol     HW 7209   2.264   0.270   8.239  2.3968 -0.2237  0.3987
 1070Sol     MW 7210   2.284   0.308   8.160  0.3104 -0.1295 -0.5108
 1071Sol     OW 7211   0.215   3.139   3.197  0.0718  0.5538  0.2781
 1071Sol     HW 7212   0.295   3.137   3.144 -1.2186 -1.1696 -1.6976
 1071Sol     HW 7213   0.243   3.111   3.284  1.8583  1.2822 -0.0424
 1071Sol     MW 7214   0.225   3.136   3.200 -0.3226  0.0771 -0.4802
 1072Sol     OW 7215   2.930   2.430   1.709  0.1661  0.1526 -0.7060
 1072Sol     HW 7216   2.981   2.350   1.712 -0.8957 -0.5788 -2.1269
 1072Sol     HW 7217   2.852   2.411   1.761  0.8374  0.9387  0.6232
 1072Sol     MW 7218   2.928   2.421   1.714 -0.0717  0.3772 -1.0698
 1073Sol     OW 7219   2.942   2.051   2.785 -0.4212  0.0105 -0.1766
 1073Sol     HW 7220   3.026   2.045   2.740 -0.4750 -1.7586 -0.0538
 1073Sol     HW 7221   2.878   2.066   2.715 -0.1011  0.6701 -0.3342
 1073Sol     MW 7222   2.944   2.052   2.774 -0.3247 -0.2107 -0.6017
 1074Sol     OW 7223   1.437   3.382   7.492 -0.2465  0.0491  0.3202
 1074Sol     HW 7224   1.416   3.448   7.425 -0.0762  1.0005  1.1874
 1074Sol     HW 7225   1.440   3.431   7.574 -0.5892 -1.1332  1.0570
 1074Sol     MW 7226   1.436   3.392   7.493 -0.6813 -0.5601  0.3638
 1075Sol     OW 7227   1.746   2.560   1.949 -0.7353 -0.6307 -0.2768
 1075Sol     HW 7228   1.731   2.488   1.888  1.4011 -1.7966  0.5107
 1075Sol     HW 7229   1.806   2.619   1.902 -0.1096 -0.8866  0.1917
 1075Sol     MW 7230   1.750   2.559   1.939  0.0974  0.0326  0.1630
 1076Sol     OW 7231   1.415   1.793   7.562  0.1235  0.0806  0.2887
 1076Sol     HW 7232   1.450   1.796   7.651  0.7692 -0.1182  0.0447
 1076Sol     HW 7233   1.492   1.806   7.506 -0.2054 -0.3051 -0.2485
 1076Sol     MW 7234   1.425   1.795   7.565 -0.4879  0.2170 -0.3830
 1077Sol     OW 7235   2.760   3.344   5.113  0.5980  0.3717  0.2121
 1077Sol     HW 7236   2.684   3.312   5.064  0.0362  0.3938  1.0532
 1077Sol     HW 7237   2.832   3.289   5.084 -0.0009 -0.4968  0.3375
 1077Sol     MW 7238   2.759   3.336   5.106 -0.3694 -0.0542 -0.2317
 1078Sol     OW 7239   0.808   3.263   8.591  0.3011  0.0782  0.1153
 1078Sol     HW 7240   0.749   3.245   8.518  0.1756  1.3307 -0.0963
 1078Sol     HW 7241   0.754   3.312   8.654  0.1809 -1.6394  1.4044
 1078Sol     MW 7242   0.798   3.266   8.590  0.5516  0.7796  0.6635
 1079Sol     OW 7243   3.219   1.464   3.467  0.2490  0.2458 -0.2660
 1079Sol     HW 7244   3.165   1.388   3.447  0.9414 -1.1855  2.9403
 1079Sol     HW 7245   3.298   1.453   3.414  0.0097 -0.8722 -0.3880
 1079Sol     MW 7246   3.222   1.456   3.461  0.2006  0.5573  0.2056
 1080Sol     OW 7247   1.217   0.855   4.122  0.0752 -0.0747  0.3483
 1080Sol     HW 7248   1.260   0.940   4.110 -1.7913  0.9365  0.7279
 1080Sol     HW 7249   1.228   0.811   4.038  2.3627 -0.0978  0.6127
 1080Sol     MW 7250   1.222   0.858   4.114 -0.6070  0.1718 -0.6068
 1081Sol     OW 7251   3.015   0.170   8.380 -0.1309  0.6759 -0.0952
 1081Sol     HW 7252   3.062   0.179   8.297 -0.3699 -3.5213 -0.8295
 1081Sol     HW 7253   2.926   0.146   8.354  0.2408 -2.5053  1.2703
 1081Sol     MW 7254   3.011   0.168   8.370  0.0425 -0.3228 -0.1710
 1082Sol     OW 7255   1.914   0.648   6.156 -0.0455  0.3892  0.7023
 1082Sol     HW 7256   1.968   0.571   6.139 -1.6699 -1.3479  3.0948
 1082Sol     HW 7257   1.854   0.652   6.082 -1.1621 -1.7587  1.4647
 1082Sol     MW 7258   1.914   0.641   6.148  0.0325 -0.6145  0.3686
 1083Sol     OW 7259   1.044   2.772   7.920 -0.5423 -0.6378  0.5537
 1083Sol     HW 7260   1.044   2.678   7.900  0.1098 -0.6249  0.5123
 1083Sol     HW 7261   1.001   2.812   7.844  1.0005 -0.6950 -0.3632
 1083Sol     MW 7262   1.040   2.767   7.911 -0.9171 -0.0859  0.1081
 1084Sol     OW 7263   2.737   2.861   6.166 -0.2827  0.0475 -0.0570
 1084Sol     HW 7264   2.696   2.779   6.196  0.3349  0.2005  1.2666
 1084Sol     HW 7265   2.727   2.920   6.241  1.8450  0.2557  0.0780
 1084Sol     MW 7266   2.732   2.859   6.176  0.2068 -0.2754 -0.2045
 1085Sol     OW 7267   1.420   1.051   3.308 -0.7348 -0.0207 -0.0030
 1085Sol     HW 7268   1.370   1.027   3.386  0.0041  0.3460  0.5936
 1085Sol     HW 7269   1.414   1.147   3.304 -0.5835 -0.0212 -0.2718
 1085Sol     MW 7270   1.415   1.058   3.314 -0.1600  0.0341  0.1112
 1086Sol     OW 7271   1.810   1.757   1.787 -0.3641 -0.1351  0.1207
 1086Sol     HW 7272   1.876   1.788   1.849  1.1956 -3.0077 -0.0041
 1086Sol     HW 7273   1.816   1.817   1.713  2.4057 -0.5411 -0.0342
 1086Sol     MW 7274   1.816   1.765   1.786 -0.0458 -0.0456  0.3346
 1087Sol     OW 7275   1.424   3.313   7.129 -0.1209  0.5787  0.9546
 1087Sol     HW 7276   1.375   3.270   7.199 -2.4311  2.7332  0.7256
 1087Sol     HW 7277   1.376   3.290   7.049  0.0784  1.5209  0.5580
 1087Sol     MW 7278   1.415   3.307   7.128  0.1212 -0.1469  0.6282
 1088Sol     OW 7279   0.917   3.335   3.431  0.2909  0.7750  0.0527
 1088Sol     HW 7280   0.876   3.405   3.380  0.1207  0.1412 -0.6791
 1088Sol     HW 7281   0.907   3.256   3.377  1.7224  0.4490  0.2377
 1088Sol     MW 7282   0.913   3.334   3.421 -0.0735  0.1864  0.4428
 1089Sol     OW 7283   1.849   2.290   4.747 -0.0780  0.3553  0.1752
 1089Sol     HW 7284   1.798   2.248   4.816 -0.0993  2.1306  1.2727
 1089Sol     HW 7285   1.935   2.304   4.786  0.2641  0.3243 -0.5615
 1089Sol     MW 7286   1.852   2.288   4.756 -0.5350  0.1913  0.1061
 1090Sol     OW 7287   2.797   0.738   8.662  0.2030  0.2460  0.4950
 1090Sol     HW 7288   2.722   0.795   8.673  0.4010  0.5633  0.2215
 1090Sol     HW 7289   2.860   0.768   8.728 -0.7235 -1.3985  2.1743
 1090Sol     MW 7290   2.796   0.746   8.669  0.3277  0.3368  0.1067
 1091Sol     OW 7291   0.065   1.033   8.415 -0.0625 -0.5232  0.2309
 1091Sol     HW 7292  -0.009   0.979   8.387 -1.9449  1.4780  1.1757
 1091Sol     HW 7293   0.088   1.084   8.337  1.6303 -2.5213 -0.6242
 1091Sol     MW 7294   0.060   1.033   8.405  0.1255 -0.0236 -0.3759
 1092Sol     OW 7295   1.720   3.072   9.045  0.0869  0.6496  0.1898
 1092Sol     HW 7296   1.780   3.114   9.107 -0.3002  1.6509 -0.1075
 1092Sol     HW 7297   1.678   3.144   9.000 -1.3628 -0.0595  0.3934
 1092Sol     MW 7298   1.722   3.082   9.046  0.1353  0.0964  0.2483
 1093Sol     OW 7299   3.132   1.305   6.219  0.1312 -0.1656 -0.1387
 1093Sol     HW 7300   3.194   1.359   6.268  0.3431  0.0996 -0.6967
 1093Sol     HW 7301   3.048   1.350   6.229  0.6181  1.1925 -1.9971
 1093Sol     MW 7302   3.130   1.314   6.224  0.6963  0.2021  0.3277
 1094Sol     OW 7303   2.414   0.787   6.450 -0.2724  0.3907 -0.0126
 1094Sol     HW 7304   2.320   0.775   6.433 -0.0917 -1.3465  0.1202
 1094Sol     HW 7305   2.429   0.745   6.535  0.5203  1.1729  0.2396
 1094Sol     MW 7306   2.407   0.782   6.456 -0.1651 -0.4280  0.1788
 1095Sol     OW 7307   0.637   0.417   9.124 -0.4533 -0.2557  0.7939
 1095Sol     HW 7308   0.604   0.328   9.132 -0.7321 -0.2157  0.1104
 1095Sol     HW 7309   0.586   0.456   9.053 -0.2185  0.3959  0.9714
 1095Sol     MW 7310   0.629   0.413   9.118 -0.1161 -0.2488 -0.0860
 1096Sol     OW 7311   1.886   0.979   7.289  0.3417 -0.6246 -0.2300
 1096Sol     HW 7312   1.911   0.888   7.277  1.4491 -0.3269 -0.1788
 1096Sol     HW 7313   1.831   0.999   7.213 -2.3471 -2.1713  1.2128
 1096Sol     MW 7314   1.883   0.973   7.281  0.3023  0.4859  0.3546
 1097Sol     OW 7315   3.173   1.676   8.346  0.3897  0.0601 -0.5352
 1097Sol     HW 7316   3.146   1.767   8.344  1.6493  0.4303 -1.0175
 1097Sol     HW 7317   3.185   1.657   8.439 -1.6895 -0.1708 -0.3032
 1097Sol     MW 7318   3.172   1.682   8.354 -0.0245 -0.1575 -0.2840
 1098Sol     OW 7319   1.524   3.190   3.138 -0.2053  0.4651 -0.1725
 1098Sol     HW 7320   1.590   3.169   3.072 -1.7416  0.0053 -1.6113
 1098Sol     HW 7321   1.496   3.279   3.115  0.4002  0.9251  0.8555
 1098Sol     MW 7322   1.527   3.196   3.130 -0.3717 -0.0500  0.4116
 1099Sol     OW 7323   0.240   2.096   5.954  0.1102 -0.1946 -0.2108
 1099Sol     HW 7324   0.182   2.041   5.903 -1.6938  1.7369 -0.3170
 1099Sol     HW 7325   0.287   2.149   5.889  1.1452 -0.9014 -0.0612
 1099Sol     MW 7326   0.239   2.096   5.944 -0.0511  0.1174  0.3331
 1100Sol     OW 7327   1.673   2.158   6.220  0.1207  0.4414 -0.0001
 1100Sol     HW 7328   1.629   2.215   6.283  0.9000  1.6443 -0.5188
 1100Sol     HW 7329   1.755   2.133   6.263 -0.2801 -0.4216  0.2826
 1100Sol     MW 7330   1.677   2.161   6.230  0.3637  0.2721 -0.3513
 1101Sol     OW 7331   0.185   3.057   4.510  0.2727 -0.8432  0.4060
 1101Sol     HW 7332   0.095   3.037   4.485 -0.9054  0.5960  3.2427
 1101Sol     HW 7333   0.210   3.130   4.454 -0.7440 -0.4778  0.4163
 1101Sol     MW 7334   0.179   3.062   4.503  0.0805 -0.1727  0.2807
 1102Sol     OW 7335   1.508   2.567   5.979 -0.2197  0.3345  0.0341
 1102Sol     HW 7336   1.418   2.567   5.946 -0.7003  0.4038  1.3122
 1102Sol     HW 7337   1.549   2.642   5.936 -0.7097  0.1783 -0.7145
 1102Sol     MW 7338   1.503   2.574   5.972 -0.1919  0.0857  0.5046
 1103Sol     OW 7339   2.757   0.187   2.880 -0.6017 -0.0886  0.0727
 1103Sol     HW 7340   2.670   0.157   2.855 -1.0021 -0.0346  1.3755
 1103Sol     HW 7341   2.742   0.262   2.938  0.1372 -2.4856  3.5558
 1103Sol     MW 7342   2.748   0.191   2.883  0.1306 -0.4590  0.0141
 1104Sol     OW 7343   2.460   1.050   2.847  0.7427  0.0482 -0.1697
 1104Sol     HW 7344   2.455   1.145   2.854  1.1731  0.1106 -0.6953
 1104Sol     HW 7345   2.522   1.034   2.776 -0.9188 -0.5941 -1.5287
 1104Sol     MW 7346   2.465   1.057   2.841  0.1075 -0.4419 -0.2436
 1105Sol     OW 7347   2.239   1.029   2.685 -0.0530 -0.2940 -0.2217
 1105Sol     HW 7348   2.318   1.011   2.737  0.3896 -1.7214 -1.3384
 1105Sol     HW 7349   2.271   1.077   2.608 -0.1324 -1.5036 -1.0389
 1105Sol     MW 7350   2.249   1.032   2.682 -0.1622 -0.3852  0.1089
 1106Sol     OW 7351   0.055   2.674   4.458  0.3023 -0.3482 -0.5052
 1106Sol     HW 7352   0.075   2.584   4.481 -0.7420 -0.7403 -1.1115
 1106Sol     HW 7353  -0.003   2.668   4.383 -1.3222  0.7682  0.6207
 1106Sol     MW 7354   0.052   2.666   4.453  0.1822  0.0752  0.1230
 1107Sol     OW 7355   2.210   2.987   2.432  0.4399 -0.2018 -0.4016
 1107Sol     HW 7356   2.293   3.012   2.474  0.0897 -0.0150  0.1798
 1107Sol     HW 7357   2.166   2.933   2.498 -1.4251  2.5006  0.6426
 1107Sol     MW 7358   2.214   2.985   2.442 -0.5879 -0.4531  0.0908
 1108Sol     OW 7359   2.490   3.174   5.620 -0.0291 -0.1297 -0.2541
 1108Sol     HW 7360   2.537   3.206   5.543 -0.9047 -0.1132 -0.8008
 1108Sol     HW 7361   2.551   3.115   5.664  0.9646  0.8943 -0.2256
 1108Sol     MW 7362   2.499   3.172   5.617 -0.5677 -0.2583  0.1151
 1109Sol     OW 7363   2.135   2.415   9.685  0.1321  0.4002  0.0680
 1109Sol     HW 7364   2.208   2.428   9.625  0.5185 -1.0054  0.2245
 1109Sol     HW 7365   2.117   2.502   9.719  2.0047  0.6950  0.3494
 1109Sol     MW 7366   2.140   2.424   9.682  0.3578 -0.0588  0.4823
 1110Sol     OW 7367   2.227   2.315   5.052 -0.3136  0.4321 -0.0285
 1110Sol     HW 7368   2.302   2.273   5.010 -0.2110  0.5503  0.0355
 1110Sol     HW 7369   2.254   2.327   5.143 -0.4623  0.3489  0.0258
 1110Sol     MW 7370   2.236   2.313   5.056 -0.4735  0.1594  0.0029
 1111Sol     OW 7371   0.881   1.452   2.466  0.1450  0.1347 -0.3633
 1111Sol     HW 7372   0.899   1.371   2.418 -2.3753 -0.6278 -0.0868
 1111Sol     HW 7373   0.816   1.428   2.531 -0.0740  2.2320  0.2485
 1111Sol     MW 7374   0.877   1.443   2.468 -0.2964 -0.3305  0.3123
 1112Sol     OW 7375   1.621   2.318   7.037 -0.6151 -0.2505 -0.4080
 1112Sol     HW 7376   1.537   2.293   6.998  0.1232 -0.4010 -1.9253
 1112Sol     HW 7377   1.652   2.391   6.984 -0.5761  0.9287  1.1942
 1112Sol     MW 7378   1.616   2.322   7.029 -0.3599 -0.1746 -0.7176
 1113Sol     OW 7379   1.122   2.571   6.582  0.4076 -0.4117 -0.0917
 1113Sol     HW 7380   1.207   2.614   6.577 -0.7796  1.9323 -0.7629
 1113Sol     HW 7381   1.105   2.541   6.493 -0.6210  1.4720 -0.5563
 1113Sol     MW 7382   1.128   2.572   6.574  0.4462  0.2139 -0.6394
 1114Sol     OW 7383   0.799   2.612   7.347  0.1208  0.2359 -0.5162
 1114Sol     HW 7384   0.717   2.612   7.298 -0.8830  0.6350  1.1438
 1114Sol     HW 7385   0.820   2.519   7.358  0.4167  0.1442 -1.7877
 1114Sol     MW 7386   0.794   2.603   7.343  0.9056  0.3847 -0.4184
 1115Sol     OW 7387   2.698   2.856   9.104  0.2490  0.4932  0.3474
 1115Sol     HW 7388   2.704   2.840   9.010  1.3963  0.4066  0.4258
 1115Sol     HW 7389   2.751   2.934   9.118 -1.4091  1.5895  0.6689
 1115Sol     MW 7390   2.703   2.861   9.097 -1.1540  0.0923  0.0191
 1116Sol     OW 7391   1.783   1.522   8.085 -0.6521  0.1564 -0.4297
 1116Sol     HW 7392   1.814   1.519   7.994 -0.3361  0.6819 -0.3396
 1116Sol     HW 7393   1.845   1.580   8.130  0.2539 -1.5131  0.5372
 1116Sol     MW 7394   1.792   1.527   8.081 -0.1393  0.2877  0.0685
 1117Sol     OW 7395   0.945   1.173   8.747  0.7524  0.2635  0.4731
 1117Sol     HW 7396   0.950   1.170   8.842 -0.9254 -0.6345  0.5564
 1117Sol     HW 7397   0.872   1.115   8.725  1.6616 -0.2128 -1.4080
 1117Sol     MW 7398   0.938   1.167   8.753  0.0345  0.0378  0.2796
 1118Sol     OW 7399   0.721   2.500   6.471 -0.3929  0.0540  0.5415
 1118Sol     HW 7400   0.771   2.578   6.496  0.3947  0.2478 -1.5265
 1118Sol     HW 7401   0.638   2.534   6.437 -0.4696 -0.0559  0.6210
 1118Sol     MW 7402   0.718   2.510   6.470  0.1100  0.3177  0.5219
 1119Sol     OW 7403   1.359   1.110   2.696  0.1961 -0.3023  0.5755
 1119Sol     HW 7404   1.434   1.072   2.741 -0.6111 -0.4493  1.8142
 1119Sol     HW 7405   1.381   1.203   2.689  1.5881 -0.7420 -1.2950
 1119Sol     MW 7406   1.368   1.115   2.699  0.1324  0.0316 -0.3746
 1120Sol     OW 7407   0.614   2.290   1.840  0.5728 -0.1376 -0.6466
 1120Sol     HW 7408   0.539   2.349   1.853 -0.3259 -0.6914 -3.0310
 1120Sol     HW 7409   0.617   2.276   1.746  1.5998 -2.8574 -0.2524
 1120Sol     MW 7410   0.608   2.294   1.833 -0.1672 -0.7914 -0.7802
 1121Sol     OW 7411   1.654   0.599   7.803 -0.6711 -0.1123 -0.6169
 1121Sol     HW 7412   1.638   0.510   7.834 -0.1165  0.3194  0.9815
 1121Sol     HW 7413   1.586   0.652   7.845 -0.9722  0.2344 -1.5247
 1121Sol     MW 7414   1.647   0.596   7.810 -0.0460  0.1946  0.1494
 1122Sol     OW 7415   1.661   0.971   6.573  0.0378 -0.0955  0.0946
 1122Sol     HW 7416   1.707   0.976   6.657 -1.4541 -1.2901  1.0244
 1122Sol     HW 7417   1.726   0.940   6.511  1.4484  1.8324  0.5697
 1122Sol     MW 7418   1.671   0.969   6.575  0.3597  0.4980  0.2592
 1123Sol     OW 7419   2.772   2.389   1.934  0.2452  0.3883  0.2411
 1123Sol     HW 7420   2.747   2.471   1.978 -1.2541 -0.3288  0.7550
 1123Sol     HW 7421   2.805   2.334   2.005  0.5400  0.2743  0.0121
 1123Sol     MW 7422   2.773   2.392   1.945  0.1058 -0.2524  0.5999
 1124Sol     OW 7423   1.945   1.377   2.809  0.1724  0.0667  0.1927
 1124Sol     HW 7424   1.854   1.372   2.779  0.6562 -0.4772 -1.2083
 1124Sol     HW 7425   1.939   1.423   2.893 -1.4071 -0.0679  0.1828
 1124Sol     MW 7426   1.936   1.381   2.814 -0.6360  0.0302  0.0737
 1125Sol     OW 7427   0.562   2.268   7.380  0.0308 -0.2487 -0.7163
 1125Sol     HW 7428   0.508   2.333   7.424 -1.1180 -2.0209  0.5519
 1125Sol     HW 7429   0.651   2.305   7.382 -0.5625  1.1565  0.2113
 1125Sol     MW 7430   0.565   2.277   7.384 -0.4920 -0.9820  0.3441
 1126Sol     OW 7431   0.355   2.490   3.969 -0.5131 -0.0456 -0.1605
 1126Sol     HW 7432   0.409   2.425   4.013  0.6758  0.7370 -0.4327
 1126Sol     HW 7433   0.344   2.560   4.034 -2.5594 -0.9000  0.4603
 1126Sol     MW 7434   0.358   2.491   3.979 -0.2473  0.2095 -0.0204
 1127Sol     OW 7435   0.665   0.415   5.383 -0.1950  0.1454  0.1174
 1127Sol     HW 7436   0.738   0.469   5.413 -0.1473  0.5383 -0.7015
 1127Sol     HW 7437   0.667   0.423   5.288 -1.9619  1.0005  0.1470
 1127Sol     MW 7438   0.672   0.420   5.377 -0.4559 -0.4217 -0.0349
 1128Sol     OW 7439   2.591   2.947   5.721 -0.5292 -1.3928  0.5180
 1128Sol     HW 7440   2.519   2.902   5.676 -1.2558 -0.1584  0.4289
 1128Sol     HW 7441   2.613   2.889   5.794 -2.2984 -1.3106  1.1420
 1128Sol     MW 7442   2.586   2.938   5.723  0.1424  0.3999  0.6237
 1129Sol     OW 7443   1.243   0.619   1.866 -0.2595 -0.5967  1.0678
 1129Sol     HW 7444   1.228   0.578   1.781  1.2551 -1.6368  1.2956
 1129Sol     HW 7445   1.178   0.578   1.923 -0.7883 -0.4353  0.5864
 1129Sol     MW 7446   1.235   0.611   1.863 -0.0041  0.0126 -0.3276
 1130Sol     OW 7447   0.599   0.583   9.937 -0.6188  0.0037  0.0620
 1130Sol     HW 7448   0.530   0.517   9.937 -1.3328  0.7053  2.6882
 1130Sol     HW 7449   0.554   0.666   9.918 -0.2110  0.1922 -0.0925
 1130Sol     MW 7450   0.589   0.585   9.936 -0.9840 -0.1254 -0.4731
 1131Sol     OW 7451   2.514   2.785   8.190 -0.4181  0.9207 -0.4870
 1131Sol     HW 7452   2.563   2.843   8.131  2.1943 -0.7619 -0.0213
 1131Sol     HW 7453   2.548   2.698   8.173 -2.7752 -0.2275  0.3881
 1131Sol     MW 7454   2.521   2.782   8.183  0.6305  0.3974  0.5734
 1132Sol     OW 7455   0.732   0.922   5.946  0.4340 -0.2278  0.1790
 1132Sol     HW 7456   0.788   0.860   5.900  0.5839 -1.0513  1.4750
 1132Sol     HW 7457   0.660   0.869   5.980  0.3307  0.3722  0.9177
 1132Sol     MW 7458   0.730   0.912   5.945 -0.1826  0.0411 -0.2302
 1133Sol     OW 7459   1.112   0.874   1.885  0.1824 -0.1798 -0.4895
 1133Sol     HW 7460   1.169   0.799   1.871  0.1793 -0.1834 -0.4830
 1133Sol     HW 7461   1.108   0.884   1.980 -0.8380 -0.9589 -0.4427
 1133Sol     MW 7462   1.117   0.868   1.892  0.6495  0.1288 -0.3318
 1134Sol     OW 7463   1.635   3.276   7.320  0.2138 -0.1510 -0.1843
 1134Sol     HW 7464   1.616   3.345   7.384  1.3051 -0.3087  0.3234
 1134Sol     HW 7465   1.595   3.307   7.239 -0.3014  0.5325  0.3230
 1134Sol     MW 7466   1.630   3.285   7.319  0.0080 -0.1238  0.3404
 1135Sol     OW 7467   1.744   1.767   5.419 -0.3250 -0.1042 -0.0237
 1135Sol     HW 7468   1.774   1.763   5.328 -0.5668 -0.0695 -0.1046
 1135Sol     HW 7469   1.811   1.720   5.468 -0.3163 -0.3307 -0.2528
 1135Sol     MW 7470   1.753   1.762   5.415  0.1505 -0.4536 -0.1926
 1136Sol     OW 7471   0.200   1.373   2.861  0.0838  0.0396  0.1802
 1136Sol     HW 7472   0.109   1.363   2.832  0.2734  0.2735 -0.4964
 1136Sol     HW 7473   0.201   1.457   2.907  0.0215  0.1735 -0.0609
 1136Sol     MW 7474   0.192   1.380   2.863  0.0488  0.1008  0.1610
 1137Sol     OW 7475   2.194   0.807   5.085 -0.8752  0.7993  0.2622
 1137Sol     HW 7476   2.125   0.747   5.111 -0.6103 -0.1735 -1.2297
 1137Sol     HW 7477   2.168   0.837   4.998  0.6871  0.2276 -0.4148
 1137Sol     MW 7478   2.186   0.804   5.080 -0.8939 -0.2801  0.0687
 1138Sol     OW 7479   2.059   2.104   7.499 -0.2368  0.1704 -0.1130
 1138Sol     HW 7480   2.134   2.045   7.495  0.3290  0.9270 -0.6903
 1138Sol     HW 7481   2.073   2.154   7.580  0.2827  0.8368 -0.6088
 1138Sol     MW 7482   2.067   2.103   7.506 -0.2029 -0.2953 -0.0416
 1139Sol     OW 7483   0.327   1.247   9.882 -0.0162  0.0387 -0.3589
 1139Sol     HW 7484   0.422   1.239   9.885 -0.1572 -1.4545  1.6051
 1139Sol     HW 7485   0.296   1.158   9.864 -1.0348  0.4786 -0.8068
 1139Sol     MW 7486   0.332   1.238   9.881 -0.4534  0.5064 -0.0973
 1140Sol     OW 7487   1.552   2.433   7.864 -0.1059 -0.3095 -0.3430
 1140Sol     HW 7488   1.457   2.435   7.871 -0.0067 -0.6960  1.3127
 1140Sol     HW 7489   1.577   2.519   7.831 -1.0607 -0.4414 -1.4403
 1140Sol     MW 7490   1.546   2.441   7.862 -0.2707  0.6812  0.8636
 1141Sol     OW 7491   3.211   0.481   4.103  1.3272  0.1969 -0.1362
 1141Sol     HW 7492   3.161   0.447   4.177  0.2758 -0.4274 -1.1186
 1141Sol     HW 7493   3.252   0.404   4.064  3.2259  0.7193  0.7563
 1141Sol     MW 7494   3.211   0.471   4.106  0.2869  0.2564  0.5408
 1142Sol     OW 7495   2.333   1.397   5.070  0.4392  0.6297 -0.2548
 1142Sol     HW 7496   2.357   1.481   5.032  0.9630  0.3065 -0.6392
 1142Sol     HW 7497   2.416   1.358   5.098  0.3439 -0.3598 -1.3143
 1142Sol     MW 7498   2.343   1.401   5.069  0.4991  0.1869 -0.1687
 1143Sol     OW 7499   1.579   3.062   7.021 -0.5634  0.3123 -0.6688
 1143Sol     HW 7500   1.652   3.102   6.974 -1.3373  0.7680 -1.5012
 1143Sol     HW 7501   1.533   3.136   7.060  1.3626 -0.1981  2.7713
 1143Sol     MW 7502   1.581   3.072   7.020  0.0475 -0.0832  0.4409
 1144Sol     OW 7503   0.840   3.119   2.454 -0.7308 -0.5503  0.1586
 1144Sol     HW 7504   0.846   3.213   2.470 -0.6734 -0.1831 -1.9142
 1144Sol     HW 7505   0.828   3.111   2.360  2.8368 -2.7551 -0.2083
 1144Sol     MW 7506   0.839   3.127   2.447 -0.6535  0.2905  0.2577
 1145Sol     OW 7507   3.083   3.414   8.560 -0.6486 -0.2089 -0.5078
 1145Sol     HW 7508   3.002   3.363   8.549 -0.9346  0.3064 -0.8357
 1145Sol     HW 7509   3.092   3.461   8.477  0.6014 -1.1399 -0.9117
 1145Sol     MW 7510   3.077   3.414   8.551 -0.3802 -0.3007 -0.1958
 1146Sol     OW 7511   2.906   3.193   6.564  0.6567  0.0294 -0.3662
 1146Sol     HW 7512   2.840   3.139   6.521 -0.4553  0.7157  0.4289
 1146Sol     HW 7513   2.878   3.283   6.547 -0.5537  0.3371  2.7820
 1146Sol     MW 7514   2.898   3.196   6.559 -0.0638 -0.0759  0.1331
 1147Sol     OW 7515   2.767   2.430   6.673 -0.3030 -0.4704 -0.3387
 1147Sol     HW 7516   2.761   2.336   6.691  1.6245 -0.7262 -0.8711
 1147Sol     HW 7517   2.793   2.435   6.580 -0.0166  0.5636 -0.2101
 1147Sol     MW 7518   2.769   2.422   6.666 -0.0260 -0.1952  0.1588
 1148Sol     OW 7519   2.438   1.203   5.310 -0.2410 -0.0366 -0.1055
 1148Sol     HW 7520   2.429   1.121   5.262 -0.0831 -0.0779 -0.0637
 1148Sol     HW 7521   2.524   1.236   5.286 -0.6019  0.4818 -0.6943
 1148Sol     MW 7522   2.445   1.199   5.304 -0.1770  0.1598 -0.1126
 1149Sol     OW 7523   3.149   2.227   4.076  0.5706 -0.1199  0.0790
 1149Sol     HW 7524   3.129   2.137   4.052 -4.3922  0.3829  1.5791
 1149Sol     HW 7525   3.145   2.276   3.994 -0.7175 -0.7176 -0.2297
 1149Sol     MW 7526   3.147   2.224   4.067  0.4204  0.0299  0.5199
 1150Sol     OW 7527   0.083   2.756   4.052 -0.0750 -0.4696 -0.4561
 1150Sol     HW 7528   0.167   2.717   4.076  2.0955  3.3135 -1.5862
 1150Sol     HW 7529   0.074   2.739   3.959  1.0202  1.8781 -1.0168
 1150Sol     MW 7530   0.089   2.751   4.046  0.6657 -0.3356  0.0401
 1151Sol     OW 7531   3.082   3.203   6.774  0.2383 -0.7220  0.0462
 1151Sol     HW 7532   3.015   3.183   6.709  1.1502  0.3297 -1.2506
 1151Sol     HW 7533   3.033   3.221   6.854 -0.9991 -0.5330 -0.7348
 1151Sol     MW 7534   3.072   3.203   6.775 -0.0476  0.2413 -0.0421
 1152Sol     OW 7535   2.339   1.058   7.554 -0.5866  0.1691  0.3617
 1152Sol     HW 7536   2.335   0.998   7.480  1.3092  0.0560  0.3166
 1152Sol     HW 7537   2.342   1.002   7.632  0.8506  0.1788  0.3355
 1152Sol     MW 7538   2.339   1.048   7.555  0.1239  0.0902  0.0056
 1153Sol     OW 7539   1.233   1.908   7.838  0.6616  0.6088  0.4730
 1153Sol     HW 7540   1.251   2.001   7.855  1.3212  0.4272  0.7828
 1153Sol     HW 7541   1.317   1.865   7.852  1.2313  0.4223 -3.1349
 1153Sol     MW 7542   1.242   1.913   7.841 -0.3261 -0.9397 -0.5607
 1154Sol     OW 7543   3.070   0.013   3.657 -0.5580 -0.8151 -0.0846
 1154Sol     HW 7544   3.057   0.076   3.728  1.0101  0.6735 -1.0674
 1154Sol     HW 7545   3.106  -0.065   3.700 -2.2314 -0.9510  1.0994
 1154Sol     MW 7546   3.072   0.011   3.667  0.6454 -0.4411 -0.5507
 1155Sol     OW 7547   1.265   2.479   2.703  0.0699 -0.4057 -0.1616
 1155Sol     HW 7548   1.350   2.475   2.659  0.6093  0.5690  0.7731
 1155Sol     HW 7549   1.259   2.569   2.734  0.1585 -1.3305  2.6529
 1155Sol     MW 7550   1.272   2.486   2.702  0.2797 -0.2311 -0.0627
 1156Sol     OW 7551   0.483   0.392   6.193  0.4849  0.5588 -0.2402
 1156Sol     HW 7552   0.455   0.442   6.116  1.1502 -0.1366 -0.9441
 1156Sol     HW 7553   0.579   0.389   6.186  0.5801  0.8514  0.8418
 1156Sol     MW 7554   0.489   0.396   6.185  0.3372 -0.2702 -0.2886
 1157Sol     OW 7555   2.290   3.189   5.215  0.1611 -0.4595 -0.2359
 1157Sol     HW 7556   2.361   3.126   5.200 -0.1530 -1.0996  0.8688
 1157Sol     HW 7557   2.255   3.164   5.300 -2.3329 -1.0727 -1.4123
 1157Sol     MW 7558   2.294   3.181   5.221 -0.2646 -0.3597 -1.1247
 1158Sol     OW 7559   0.883   0.564   5.416 -0.0478 -0.3582 -0.2700
 1158Sol     HW 7560   0.964   0.532   5.456  1.6194  0.7916 -2.6052
 1158Sol     HW 7561   0.860   0.642   5.467 -0.1828 -1.1713  0.9327
 1158Sol     MW 7562   0.888   0.568   5.424 -0.3004  0.1347 -0.2582
 1159Sol     OW 7563   2.407   1.073   5.570  0.8563 -0.1900  0.0761
 1159Sol     HW 7564   2.419   1.115   5.485 -1.1249 -0.1535 -0.1936
 1159Sol     HW 7565   2.384   0.982   5.550  0.8235 -0.2932  0.5743
 1159Sol     MW 7566   2.406   1.069   5.561  0.1452  1.0331 -0.1605
 1160Sol     OW 7567   1.339   0.058   1.534 -0.3530 -0.5114 -0.4768
 1160Sol     HW 7568   1.293  -0.024   1.553  1.0386 -0.9584  1.1031
 1160Sol     HW 7569   1.425   0.031   1.502  0.3045  0.3040  0.5459
 1160Sol     MW 7570   1.343   0.048   1.533 -0.3735  0.1946  0.0590
 1161Sol     OW 7571   2.576   1.768   7.559  0.6154  0.1193 -0.3629
 1161Sol     HW 7572   2.604   1.849   7.517 -1.3399  1.9809  1.7353
 1161Sol     HW 7573   2.614   1.772   7.647  0.9445 -1.5270 -0.4103
 1161Sol     MW 7574   2.582   1.775   7.564 -0.1548 -0.0072  0.2513
 1162Sol     OW 7575   0.429   2.655   4.684  0.3610  0.1016  0.0907
 1162Sol     HW 7576   0.378   2.718   4.634 -1.3084  0.2635  1.9175
 1162Sol     HW 7577   0.507   2.704   4.712  0.4740  0.4978 -0.9209
 1162Sol     MW 7578   0.431   2.665   4.682 -0.2061  0.2970  0.0604
 1163Sol     OW 7579   1.324   3.300   3.748  0.4568 -0.0540  0.5580
 1163Sol     HW 7580   1.243   3.346   3.726  1.2371  0.6726 -0.8260
 1163Sol     HW 7581   1.389   3.337   3.690  1.4210 -1.9194  0.4247
 1163Sol     MW 7582   1.322   3.308   3.741  0.3050  0.3523 -0.2771
 1164Sol     OW 7583   1.688   1.940   3.273  0.6494  0.4136  0.0238
 1164Sol     HW 7584   1.696   1.868   3.336  1.1581  1.2781  0.9600
 1164Sol     HW 7585   1.602   1.977   3.289  1.3887  1.6230  1.2951
 1164Sol     MW 7586   1.681   1.937   3.280  0.2164  0.0759  0.5149
 1165Sol     OW 7587   1.384   0.919   9.916 -0.0359  0.1768  0.3754
 1165Sol     HW 7588   1.344   0.990   9.966 -0.4318  1.0817 -1.1873
 1165Sol     HW 7589   1.311   0.860   9.894  0.2045 -0.4393  1.2188
 1165Sol     MW 7590   1.374   0.920   9.918  0.2445  0.3021 -0.6040
 1166Sol     OW 7591   2.981   2.571   9.684  0.3991  0.0169  0.0627
 1166Sol     HW 7592   3.058   2.616   9.647  0.1015 -0.3917 -1.0716
 1166Sol     HW 7593   2.976   2.489   9.635 -1.6361  0.6990 -0.9077
 1166Sol     MW 7594   2.988   2.568   9.676 -0.4111 -0.0172 -0.7276
 1167Sol     OW 7595   1.674   2.210   3.582 -0.2078 -0.0134 -0.1885
 1167Sol     HW 7596   1.693   2.303   3.569 -0.2928  0.3010  1.9055
 1167Sol     HW 7597   1.760   2.167   3.577 -0.1060  0.2311 -0.5696
 1167Sol     MW 7598   1.684   2.214   3.580 -0.0640  0.1817 -0.2065
 1168Sol     OW 7599   0.247   1.919   9.370  0.1036  0.9421  0.0693
 1168Sol     HW 7600   0.321   1.865   9.343  0.2594  1.2816 -0.1837
 1168Sol     HW 7601   0.287   1.989   9.422  0.2495  2.5464 -2.1306
 1168Sol     MW 7602   0.257   1.920   9.372 -0.1317 -0.0383  0.4369
 1169Sol     OW 7603   1.170   2.843   7.184  0.3964 -0.1056 -0.0240
 1169Sol     HW 7604   1.218   2.890   7.252  0.8648 -0.5960 -0.0110
 1169Sol     HW 7605   1.215   2.866   7.103 -0.1152  0.4187 -0.1647
 1169Sol     MW 7606   1.178   2.849   7.183 -0.3224  0.2598 -0.4785
 1170Sol     OW 7607   0.385   1.734   6.517  0.1922 -0.0488 -0.4286
 1170Sol     HW 7608   0.361   1.820   6.550 -1.3242 -0.8235  0.5408
 1170Sol     HW 7609   0.340   1.672   6.574  0.4195 -1.4832 -1.7463
 1170Sol     MW 7610   0.379   1.736   6.525  0.3044  0.1053  0.3989
 1171Sol     OW 7611   0.968   1.568   4.308 -0.4801 -0.3493  0.2073
 1171Sol     HW 7612   0.974   1.511   4.231 -0.7223 -0.0022 -0.0742
 1171Sol     HW 7613   1.001   1.515   4.380  1.5867 -0.0222 -0.4617
 1171Sol     MW 7614   0.971   1.558   4.308 -0.5328 -0.6418  0.1052
 1172Sol     OW 7615   1.959   0.061   8.078 -0.5007 -0.4879  0.4571
 1172Sol     HW 7616   1.984   0.148   8.046  0.1201 -0.7477  0.2075
 1172Sol     HW 7617   1.942   0.073   8.171 -0.8384 -0.0152  0.3341
 1172Sol     MW 7618   1.960   0.070   8.083 -0.2703  0.0901 -0.5190
 1173Sol     OW 7619   1.436   0.051   8.662 -0.1552 -0.3238 -0.0310
 1173Sol     HW 7620   1.454   0.095   8.744  0.0747  0.5803 -0.5664
 1173Sol     HW 7621   1.520   0.013   8.635  0.3879  1.6580 -1.1975
 1173Sol     MW 7622   1.445   0.051   8.667  0.4324  0.1965 -0.2749
 1174Sol     OW 7623   3.108   2.505   6.426 -0.3985  0.7287  0.0964
 1174Sol     HW 7624   3.083   2.593   6.452 -1.4701  0.1708  1.0069
 1174Sol     HW 7625   3.025   2.459   6.413  0.1412 -0.0653 -0.6682
 1174Sol     MW 7626   3.098   2.509   6.427  0.0312  0.3202 -0.1143
 1175Sol     OW 7627   0.880   0.096   4.929  0.1669  0.3764  0.1355
 1175Sol     HW 7628   0.841   0.176   4.896  0.0522  0.2142 -0.1241
 1175Sol     HW 7629   0.974   0.111   4.925  0.1949 -0.1848 -1.6279
 1175Sol     MW 7630   0.885   0.104   4.926  0.0289 -0.0568  0.7121
 1176Sol     OW 7631   2.025   1.860   9.474  0.6707 -0.3759  0.5461
 1176Sol     HW 7632   1.932   1.883   9.478  0.8551  0.1096  2.3900
 1176Sol     HW 7633   2.070   1.936   9.509  1.7721 -0.6099 -0.3579
 1176Sol     MW 7634   2.020   1.869   9.477  0.2692 -0.2301  0.8064
 1177Sol     OW 7635   1.756   0.491   4.288 -0.4735 -0.4191  0.3968
 1177Sol     HW 7636   1.795   0.412   4.325 -1.5491 -1.3313 -0.3834
 1177Sol     HW 7637   1.688   0.516   4.351  0.4861  0.4352  1.1126
 1177Sol     MW 7638   1.753   0.486   4.297  0.4088  0.1716  0.4799
 1178Sol     OW 7639   2.354   1.331   4.415  0.2466  0.3012 -0.3763
 1178Sol     HW 7640   2.396   1.410   4.449  0.8104  0.0242 -0.4252
 1178Sol     HW 7641   2.426   1.279   4.379 -0.0772 -0.3841 -0.0514
 1178Sol     MW 7642   2.365   1.333   4.415 -0.0642  0.1786  0.0697
 1179Sol     OW 7643   1.108   1.011   7.393 -0.0570 -0.3248  0.6407
 1179Sol     HW 7644   1.192   1.004   7.439  0.1923 -0.1997  0.2166
 1179Sol     HW 7645   1.131   1.051   7.309 -0.4452 -0.9298  0.2470
 1179Sol     MW 7646   1.118   1.014   7.389 -0.2315 -0.1139 -0.1389
 1180Sol     OW 7647   1.255   0.619   7.775 -1.1053 -0.4602 -0.1993
 1180Sol     HW 7648   1.310   0.563   7.829  0.1011 -0.0498 -0.9769
 1180Sol     HW 7649   1.280   0.598   7.685 -0.2487  1.6419 -0.5071
 1180Sol     MW 7650   1.262   0.612   7.771  0.0680  0.1145  0.2403
 1181Sol     OW 7651   0.590   1.643   5.180 -0.0223  0.4578 -0.6401
 1181Sol     HW 7652   0.633   1.600   5.106 -1.4259  0.1218 -1.2753
 1181Sol     HW 7653   0.642   1.617   5.256  0.8789  0.0329 -1.3858
 1181Sol     MW 7654   0.598   1.637   5.180 -0.1306 -0.2356 -0.2158
 1182Sol     OW 7655   2.398   0.463   7.735 -0.1520  0.6995 -0.4092
 1182Sol     HW 7656   2.412   0.517   7.658  0.8673  0.0116 -0.7094
 1182Sol     HW 7657   2.408   0.524   7.809 -0.2369  1.1729 -0.7865
 1182Sol     MW 7658   2.400   0.473   7.735 -0.0615  0.0840  0.7946
 1183Sol     OW 7659   3.113   1.693   5.997  0.4309  0.6053  0.6908
 1183Sol     HW 7660   3.033   1.670   6.045  0.9323 -0.1114  1.1862
 1183Sol     HW 7661   3.149   1.767   6.044  1.7979 -1.1164  2.4200
 1183Sol     MW 7662   3.109   1.697   6.005 -0.2200  0.0698  0.1834
 1184Sol     OW 7663   2.952   0.973   7.723 -0.1899  0.6427 -0.3046
 1184Sol     HW 7664   2.952   0.898   7.664 -3.2252  0.8734 -0.6627
 1184Sol     HW 7665   3.028   1.024   7.696  2.3123 -2.5506  0.3597
 1184Sol     MW 7666   2.959   0.971   7.716 -0.2538 -0.3697  0.1873
 1185Sol     OW 7667   1.627   0.005   6.848 -0.8145 -0.0200  0.1223
 1185Sol     HW 7668   1.533   0.008   6.867 -0.7368  0.5264  0.4291
 1185Sol     HW 7669   1.632  -0.026   6.757 -1.2813 -0.2708  0.1791
 1185Sol     MW 7670   1.619   0.002   6.842  0.4429 -0.4068 -0.0274
 1186Sol     OW 7671   1.896   0.144   6.869  0.2988 -0.9339 -0.1495
 1186Sol     HW 7672   1.921   0.071   6.925 -0.7567  1.0216  3.0148
 1186Sol     HW 7673   1.977   0.168   6.824  1.3933 -2.0171  1.2035
 1186Sol     MW 7674   1.906   0.140   6.870 -0.2159 -0.2156 -0.0549
 1187Sol     OW 7675   2.108   3.018   3.183  0.7107  0.4523  0.8844
 1187Sol     HW 7676   2.034   3.065   3.224 -1.0499 -1.3378 -0.1333
 1187Sol     HW 7677   2.100   2.929   3.215  1.0466 -0.3029 -1.0649
 1187Sol     MW 7678   2.100   3.015   3.190  0.1958 -0.2283 -0.2565
 1188Sol     OW 7679   0.569   2.307   4.861  0.1223 -0.3549 -0.3976
 1188Sol     HW 7680   0.553   2.282   4.952 -1.2357  1.7081 -0.0353
 1188Sol     HW 7681   0.619   2.388   4.866 -1.3911  0.6777 -1.4581
 1188Sol     MW 7682   0.572   2.312   4.869  0.3505 -0.6577 -0.6161
 1189Sol     OW 7683   2.300   1.691   6.511 -0.4239 -0.3491  0.3119
 1189Sol     HW 7684   2.288   1.785   6.528 -0.1264  0.1970 -2.2693
 1189Sol     HW 7685   2.332   1.656   6.594  1.0578  2.1378  0.8554
 1189Sol     MW 7686   2.302   1.696   6.520  0.5024 -0.5625  0.2940
 1190Sol     OW 7687   2.698   0.596   5.346  0.2329 -0.3809 -0.1671
 1190Sol     HW 7688   2.713   0.606   5.440  2.9765 -3.0396 -0.2334
 1190Sol     HW 7689   2.603   0.604   5.336 -0.2221 -0.9788  2.9539
 1190Sol     MW 7690   2.691   0.598   5.354 -0.1062  0.6134  0.2393
 1191Sol     OW 7691   0.718   2.869   5.634 -0.2278 -0.8259  0.5395
 1191Sol     HW 7692   0.791   2.808   5.622  0.6925 -0.1793  2.6431
 1191Sol     HW 7693   0.761   2.955   5.637 -1.3043 -0.2549 -0.3652
 1191Sol     MW 7694   0.729   2.872   5.633 -0.1805 -0.5097  0.2654
 1192Sol     OW 7695   0.622   1.629   3.580  0.1602  0.2278  0.0166
 1192Sol     HW 7696   0.699   1.685   3.590 -0.0839  0.1146  2.7046
 1192Sol     HW 7697   0.656   1.540   3.588 -0.2492  0.1771  1.1646
 1192Sol     MW 7698   0.632   1.626   3.581 -0.4709 -0.2525 -0.3267
 1193Sol     OW 7699   2.710   0.306   3.705 -0.0513 -0.0998 -0.3289
 1193Sol     HW 7700   2.763   0.344   3.775 -0.7890 -0.7515  0.5798
 1193Sol     HW 7701   2.774   0.289   3.635  0.9407 -0.8265  0.7345
 1193Sol     MW 7702   2.721   0.308   3.705 -0.1392  0.2287  0.1221
 1194Sol     OW 7703   2.426   0.821   1.913 -0.6002  0.0260  0.0411
 1194Sol     HW 7704   2.418   0.793   2.005  0.3935  1.3860  0.5580
 1194Sol     HW 7705   2.448   0.914   1.918  0.8355 -0.2116 -1.5650
 1194Sol     MW 7706   2.427   0.827   1.922 -0.1147 -0.1850  0.1752
 1195Sol     OW 7707   1.996   1.285   1.349  0.2819  0.0474 -0.7309
 1195Sol     HW 7708   2.038   1.210   1.391 -1.2892 -0.2149  0.4041
 1195Sol     HW 7709   1.908   1.287   1.386 -0.3877  1.1887 -2.3379
 1195Sol     MW 7710   1.992   1.278   1.356  0.7777 -0.2909  1.0515
 1196Sol     OW 7711   1.183   1.663   9.643 -0.2992 -0.1775 -0.1649
 1196Sol     HW 7712   1.094   1.640   9.615 -0.4300  0.9248 -0.6778
 1196Sol     HW 7713   1.172   1.698   9.732 -0.7008  2.0961 -1.0675
 1196Sol     MW 7714   1.174   1.664   9.648 -0.3309  0.1624  0.6750
 1197Sol     OW 7715   3.019   3.301   9.618  0.3542  0.1193 -0.2311
 1197Sol     HW 7716   3.031   3.212   9.585  2.9521  0.4228 -0.2447
 1197Sol     HW 7717   2.983   3.349   9.543  2.5566 -0.0860 -1.4928
 1197Sol     MW 7718   3.017   3.297   9.608 -0.5856  0.4879  0.0073
 1198Sol     OW 7719   1.741   1.679   8.986  0.8722  0.2480  0.0947
 1198Sol     HW 7720   1.682   1.625   8.935  1.3079  0.3017 -0.4764
 1198Sol     HW 7721   1.716   1.664   9.077  0.5529 -0.3881 -0.0994
 1198Sol     MW 7722   1.734   1.673   8.989 -0.5914 -0.1116 -0.7214
 1199Sol     OW 7723   0.949   2.339   6.679 -0.3210  0.9023  0.0829
 1199Sol     HW 7724   0.990   2.419   6.647  0.1849  0.7465  0.3285
 1199Sol     HW 7725   0.923   2.360   6.769  1.5965  0.1802  0.8378
 1199Sol     MW 7726   0.950   2.348   6.684 -0.1678 -0.1082  0.6116
 1200Sol     OW 7727   2.157   0.179   2.107 -0.5206  0.2709 -0.3935
 1200Sol     HW 7728   2.114   0.183   2.192  0.1574 -0.4854 -0.0064
 1200Sol     HW 7729   2.120   0.253   2.058 -1.6838  0.0903  0.1871
 1200Sol     MW 7730   2.150   0.186   2.110  0.3298  0.4149  0.3564
 1201Sol     OW 7731   2.892   3.097   8.829  0.3042 -0.0945  0.5889
 1201Sol     HW 7732   2.984   3.104   8.856 -0.1190  0.8846  1.8315
 1201Sol     HW 7733   2.866   3.009   8.858  0.7195 -0.1953  0.6630
 1201Sol     MW 7734   2.898   3.089   8.834 -0.2721 -0.0846 -1.1024
 1202Sol     OW 7735   1.909   2.606   7.137  0.0511  0.9242  0.3573
 1202Sol     HW 7736   1.952   2.526   7.108 -2.0255  0.2416 -0.9249
 1202Sol     HW 7737   1.945   2.621   7.225  1.5617 -0.5680  0.0328
 1202Sol     MW 7738   1.916   2.600   7.142 -0.1067  0.0395  0.6257
 1203Sol     OW 7739   1.331   0.444   9.899 -0.2193 -0.6412 -0.0831
 1203Sol     HW 7740   1.255   0.405   9.856  0.4092 -0.7855 -1.0740
 1203Sol     HW 7741   1.405   0.389   9.873  0.1872 -0.7073  1.1470
 1203Sol     MW 7742   1.331   0.435   9.893 -0.5694  0.1872  0.3805
 1204Sol     OW 7743   0.950   2.899   4.172  0.1992  0.5001  0.3515
 1204Sol     HW 7744   1.035   2.886   4.215 -0.7979 -0.5192  2.0746
 1204Sol     HW 7745   0.930   2.991   4.187  1.4308  0.9928 -0.9059
 1204Sol     MW 7746   0.956   2.906   4.177 -0.3222 -0.1753  0.4826
 1205Sol     OW 7747   1.754   1.259   8.108  0.3845  0.2161 -0.2350
 1205Sol     HW 7748   1.667   1.247   8.146  0.0473 -0.0152 -1.0679
 1205Sol     HW 7749   1.767   1.354   8.107 -1.1787  0.4434 -3.0039
 1205Sol     MW 7750   1.748   1.267   8.112 -0.3743  0.1430  0.3578
 1206Sol     OW 7751   0.875   2.921   1.617 -0.0051 -0.2564 -0.2105
 1206Sol     HW 7752   0.964   2.929   1.650  0.2463 -1.9250 -0.4656
 1206Sol     HW 7753   0.865   2.997   1.559  0.7598  0.6965  0.8772
 1206Sol     MW 7754   0.882   2.929   1.614  0.4517  0.1796 -0.6788
 1207Sol     OW 7755   1.107   1.498   1.941  0.0914  0.0409  0.0185
 1207Sol     HW 7756   1.178   1.562   1.941  0.6115 -0.5172  0.8399
 1207Sol     HW 7757   1.149   1.417   1.969 -0.5316 -0.6920 -1.1350
 1207Sol     MW 7758   1.117   1.496   1.943  0.1669  0.4385  0.0506
 1208Sol     OW 7759   0.113   2.927   5.861 -0.3492  0.3919  0.0198
 1208Sol     HW 7760   0.147   2.852   5.910  1.0461  0.1223 -1.3205
 1208Sol     HW 7761   0.171   2.999   5.884 -1.1857  0.8744  0.6526
 1208Sol     MW 7762   0.121   2.926   5.868 -0.3675  0.3597  0.2047
 1209Sol     OW 7763   3.215   2.601   7.673 -0.2086 -0.0397 -0.1189
 1209Sol     HW 7764   3.301   2.618   7.711 -0.2764  2.0175 -0.8431
 1209Sol     HW 7765   3.165   2.682   7.689 -1.2230 -0.3040 -1.8435
 1209Sol     MW 7766   3.218   2.610   7.678 -0.2476 -0.0540 -0.2873
 1210Sol     OW 7767   0.339   1.001   1.984  0.4454  0.1700  0.0328
 1210Sol     HW 7768   0.254   0.970   2.014  1.7717 -4.0435 -0.2749
 1210Sol     HW 7769   0.381   1.035   2.063 -1.0645  1.2357  0.3932
 1210Sol     MW 7770   0.336   1.001   1.994  0.0991 -0.1673 -0.1572
 1211Sol     OW 7771   3.136   2.453   5.516 -0.6399 -0.0996 -0.2674
 1211Sol     HW 7772   3.124   2.536   5.562 -1.4229 -0.6019  0.4446
 1211Sol     HW 7773   3.180   2.477   5.434  0.7194  0.8174  0.6966
 1211Sol     MW 7774   3.139   2.463   5.513 -0.2420 -0.3051 -0.0766
 1212Sol     OW 7775   0.946   2.286   8.186  0.2019 -0.0491 -0.0244
 1212Sol     HW 7776   1.011   2.216   8.182  0.7927  0.5670 -2.1410
 1212Sol     HW 7777   0.906   2.277   8.272  1.3980 -1.9643  0.3681
 1212Sol     MW 7778   0.949   2.279   8.193  0.2168 -0.6198  0.9006
 1213Sol     OW 7779   2.467   1.526   8.984 -0.5952  0.7585 -0.0459
 1213Sol     HW 7780   2.421   1.596   8.936  1.2977 -0.6898 -4.2530
 1213Sol     HW 7781   2.558   1.535   8.956 -0.1276 -2.6521  0.2474
 1213Sol     MW 7782   2.471   1.533   8.977 -0.1557 -0.3305  0.1589
 1214Sol     OW 7783   3.214   2.823   5.421  0.2393  0.4900  0.4726
 1214Sol     HW 7784   3.286   2.771   5.386 -1.2059 -2.0097  1.1009
 1214Sol     HW 7785   3.233   2.913   5.394  3.0792 -0.2783 -0.1598
 1214Sol     MW 7786   3.222   2.827   5.416 -0.1687 -0.1712 -0.3306
 1215Sol     OW 7787   0.882   1.533   6.418 -0.4600 -0.2075  0.4349
 1215Sol     HW 7788   0.905   1.516   6.509 -0.2326  2.0084  0.8099
 1215Sol     HW 7789   0.965   1.553   6.375 -0.9095  1.7105  0.4211
 1215Sol     MW 7790   0.892   1.533   6.422 -0.3245  0.3746 -0.1545
 1216Sol     OW 7791   1.952   3.077   2.737 -0.0900 -0.2278 -0.0472
 1216Sol     HW 7792   2.008   3.103   2.811  0.4938  0.5432 -0.7620
 1216Sol     HW 7793   1.907   3.157   2.711 -1.9055 -0.9298  0.8086
 1216Sol     MW 7794   1.953   3.086   2.742 -0.1256 -0.9038 -0.1617
 1217Sol     OW 7795   2.266   1.080   3.553 -0.7646  0.1327  0.0993
 1217Sol     HW 7796   2.305   1.149   3.607 -1.7899  1.1700 -0.4391
 1217Sol     HW 7797   2.304   0.999   3.586  0.6957  0.9802  0.5558
 1217Sol     MW 7798   2.273   1.079   3.561  0.1149  0.0445  0.0528
 1218Sol     OW 7799   2.769   0.605   5.597 -0.6837  0.2582 -0.1630
 1218Sol     HW 7800   2.852   0.566   5.569 -0.0822  0.2488  1.5302
 1218Sol     HW 7801   2.795   0.679   5.651 -1.7995  0.8690 -0.4429
 1218Sol     MW 7802   2.779   0.608   5.599 -0.3804  0.1406 -0.6210
 1219Sol     OW 7803   2.697   0.826   9.166 -0.5124 -0.2786 -0.2053
 1219Sol     HW 7804   2.672   0.737   9.144 -1.0818  0.0136 -0.7621
 1219Sol     HW 7805   2.769   0.847   9.106  0.1059 -0.6072  0.4099
 1219Sol     MW 7806   2.701   0.820   9.159 -0.3044  0.1455 -0.3811
 1220Sol     OW 7807   0.997   0.422   9.160 -0.5949  0.0992  0.4907
 1220Sol     HW 7808   0.985   0.374   9.078  0.4837  0.4410  0.1100
 1220Sol     HW 7809   0.943   0.500   9.151  0.8678  1.0183 -0.6660
 1220Sol     MW 7810   0.991   0.425   9.152  0.3930 -0.0177 -0.2537
 1221Sol     OW 7811   0.179   1.909   2.843 -0.1072 -0.3812  0.2959
 1221Sol     HW 7812   0.231   1.989   2.849 -0.4067 -0.1942  0.4447
 1221Sol     HW 7813   0.134   1.903   2.928 -0.8850 -0.1515 -0.0949
 1221Sol     MW 7814   0.179   1.915   2.851  0.8102 -0.5691  0.1237
 1222Sol     OW 7815   0.548   0.182   2.324  0.3000  0.2175 -0.1995
 1222Sol     HW 7816   0.475   0.210   2.269  0.5271 -0.7298 -0.9856
 1222Sol     HW 7817   0.507   0.145   2.402 -0.0421  0.2464 -0.3660
 1222Sol     MW 7818   0.538   0.182   2.326 -0.5081 -0.1597 -0.3228
 1223Sol     OW 7819   2.509   2.112   3.507 -0.2052  0.0908 -0.0742
 1223Sol     HW 7820   2.581   2.173   3.523  1.4183 -1.8753  0.4097
 1223Sol     HW 7821   2.461   2.150   3.433  1.4200  1.3791 -0.5054
 1223Sol     MW 7822   2.511   2.121   3.502  0.7736  0.9582 -0.1330
 1224Sol     OW 7823   0.885   2.107   8.923  0.2250 -0.2955 -0.5148
 1224Sol     HW 7824   0.903   2.029   8.976  0.3959  0.1086  0.0223
 1224Sol     HW 7825   0.790   2.114   8.924  0.2119 -0.4568 -0.5083
 1224Sol     MW 7826   0.878   2.100   8.928 -0.4181  0.1741  0.3071
 1225Sol     OW 7827   1.473   2.948   1.343  0.2937 -0.6678  0.2627
 1225Sol     HW 7828   1.536   2.946   1.415 -0.4261 -0.2657  0.9078
 1225Sol     HW 7829   1.499   3.024   1.291  1.1072 -1.2368 -0.1790
 1225Sol     MW 7830   1.481   2.955   1.345 -0.4033  0.2395 -0.1463
 1226Sol     OW 7831   0.066   1.882   5.331  0.0352 -0.5013  0.1079
 1226Sol     HW 7832   0.094   1.947   5.395  0.2711 -0.1657 -0.3318
 1226Sol     HW 7833   0.145   1.865   5.279  0.1259 -1.5581  0.5816
 1226Sol     MW 7834   0.076   1.886   5.332 -0.1733 -0.0097  0.3659
 1227Sol     OW 7835   0.407   3.175   6.418  0.3405 -0.0665  0.8072
 1227Sol     HW 7836   0.482   3.172   6.477  1.7073  1.0719 -0.8138
 1227Sol     HW 7837   0.444   3.201   6.333 -1.7768 -0.2033 -0.2024
 1227Sol     MW 7838   0.417   3.177   6.415  0.1798 -0.3381 -0.6963
 1228Sol     OW 7839   2.556   1.695   8.292 -0.8894  0.7739  0.1286
 1228Sol     HW 7840   2.651   1.686   8.296 -0.7729 -0.0607 -3.1055
 1228Sol     HW 7841   2.542   1.780   8.249 -1.5726  0.2734 -0.6509
 1228Sol     MW 7842   2.563   1.702   8.288  0.1189 -0.4564 -0.3551
 1229Sol     OW 7843   2.016   0.603   5.110 -0.5835  0.5676  0.0947
 1229Sol     HW 7844   1.927   0.594   5.078 -1.0365  0.3281  1.3930
 1229Sol     HW 7845   2.029   0.527   5.167  0.5912  0.3764 -0.4107
 1229Sol     MW 7846   2.009   0.595   5.112  0.0108  0.5548 -0.4776
 1230Sol     OW 7847   2.894   1.344   1.888 -0.1160  0.2591  0.3308
 1230Sol     HW 7848   2.807   1.382   1.872  0.4211  1.0613 -0.7499
 1230Sol     HW 7849   2.951   1.389   1.826  0.8228 -1.2526  0.0769
 1230Sol     MW 7850   2.891   1.352   1.881  0.4396 -0.4026  0.0334
 1231Sol     OW 7851   2.578   0.274   7.796 -0.5515 -0.1749  0.1455
 1231Sol     HW 7852   2.602   0.296   7.886  0.8955 -0.8912 -0.0579
 1231Sol     HW 7853   2.524   0.348   7.767  3.1061  2.6004 -0.0549
 1231Sol     MW 7854   2.575   0.283   7.801  0.0855 -0.2493  0.6277
 1232Sol     OW 7855   0.309   1.650   5.998  0.1969 -0.2521 -0.3972
 1232Sol     HW 7856   0.285   1.706   5.925 -1.1746 -1.3539 -0.8153
 1232Sol     HW 7857   0.266   1.690   6.074  0.2638 -0.0272 -0.4782
 1232Sol     MW 7858   0.303   1.659   5.998 -0.4163 -0.8127 -0.1983
 1233Sol     OW 7859   0.100   3.266   4.686 -0.0070 -0.2754 -0.1024
 1233Sol     HW 7860   0.145   3.239   4.766 -2.1454 -1.8707  0.6094
 1233Sol     HW 7861   0.124   3.200   4.622 -0.8656 -0.8186  0.1274
 1233Sol     MW 7862   0.106   3.258   4.688 -0.2370 -0.0634  0.1580
 1234Sol     OW 7863   1.992   0.646   8.750  0.3292 -0.1829  0.3567
 1234Sol     HW 7864   1.925   0.606   8.804  1.1300 -0.9591  0.7942
 1234Sol     HW 7865   2.067   0.656   8.808  0.5452  0.7956 -0.0870
 1234Sol     MW 7866   1.993   0.643   8.760  0.1761  0.0724  0.0096
 1235Sol     OW 7867   0.565   1.083   8.033 -0.8700 -0.0284  0.0733
 1235Sol     HW 7868   0.530   1.156   8.084 -1.1231 -1.3568  1.8485
 1235Sol     HW 7869   0.610   1.028   8.097  0.1877 -0.9110 -1.4001
 1235Sol     MW 7870   0.566   1.084   8.043  0.7785 -0.2433 -0.8057
 1236Sol     OW 7871   1.931   1.732   6.378 -0.1478 -0.6645 -0.8959
 1236Sol     HW 7872   1.985   1.795   6.330  0.1311 -1.4879 -1.6722
 1236Sol     HW 7873   1.990   1.661   6.400 -0.1817 -0.1484  1.0094
 1236Sol     MW 7874   1.941   1.732   6.376 -0.3095  0.5521 -0.6022
 1237Sol     OW 7875   3.064   0.584   2.055  0.1926  0.3039  0.3443
 1237Sol     HW 7876   3.095   0.534   1.979  0.3009 -0.1959  0.7102
 1237Sol     HW 7877   2.970   0.566   2.059  0.4214 -0.7636  1.1229
 1237Sol     MW 7878   3.058   0.578   2.048 -0.0335 -0.2477  0.0411
 1238Sol     OW 7879   3.041   2.270   8.870 -0.3786 -0.1281 -0.6493
 1238Sol     HW 7880   3.093   2.263   8.790  0.3304 -1.1828 -0.1068
 1238Sol     HW 7881   3.003   2.183   8.882  0.5796 -0.3537  0.8622
 1238Sol     MW 7882   3.042   2.262   8.864 -0.7104  0.0947  0.1644
 1239Sol     OW 7883   3.189   3.211   7.282 -0.9473  0.3814  0.8265
 1239Sol     HW 7884   3.266   3.196   7.226 -0.3923 -0.0572  1.6983
 1239Sol     HW 7885   3.115   3.216   7.221 -0.6516 -2.2912  0.2215
 1239Sol     MW 7886   3.189   3.210   7.271  0.6315 -0.3585 -0.4887
 1240Sol     OW 7887   2.943   3.353   3.457 -0.5034  0.3860  0.1539
 1240Sol     HW 7888   2.976   3.393   3.537 -0.9835  1.9742 -0.4258
 1240Sol     HW 7889   2.882   3.286   3.487  0.0997  0.2705  1.1358
 1240Sol     MW 7890   2.941   3.351   3.467  0.4759 -0.3077 -0.1253
 1241Sol     OW 7891   2.601   2.340   6.247  0.3681 -0.3093  0.8970
 1241Sol     HW 7892   2.632   2.297   6.167  0.4655 -0.9323  1.2640
 1241Sol     HW 7893   2.604   2.434   6.227  1.1235 -0.4293  0.4307
 1241Sol     MW 7894   2.604   2.345   6.238 -0.3071 -0.3313  0.7093
 1242Sol     OW 7895   2.276   2.315   5.324 -0.1479  0.2768  0.8136
 1242Sol     HW 7896   2.336   2.241   5.332 -2.4024 -1.5540  1.1412
 1242Sol     HW 7897   2.328   2.391   5.352  1.5805 -1.4446  2.4094
 1242Sol     MW 7898   2.286   2.315   5.327  0.2328  0.3696 -0.2320
 1243Sol     OW 7899   1.546   1.911   8.079 -0.0140  0.2818 -0.0162
 1243Sol     HW 7900   1.587   1.941   8.160  0.3373  0.0636 -0.1132
 1243Sol     HW 7901   1.613   1.923   8.012 -0.8168  1.8919 -0.5577
 1243Sol     MW 7902   1.555   1.915   8.080  0.1131  0.0077  0.0211
 1244Sol     OW 7903   1.979   3.229   9.505 -0.2452  0.2944 -0.3935
 1244Sol     HW 7904   2.065   3.262   9.527 -0.2989  0.9224 -1.1146
 1244Sol     HW 7905   1.995   3.162   9.438 -0.2156 -0.4842  0.3829
 1244Sol     MW 7906   1.988   3.226   9.501  0.1588  0.0913  0.1713
 1245Sol     OW 7907   3.273   3.403   7.869  0.3076 -0.8329 -0.5606
 1245Sol     HW 7908   3.273   3.377   7.961 -0.7462 -0.7978 -0.5427
 1245Sol     HW 7909   3.365   3.405   7.844  0.5421 -1.8833  0.1990
 1245Sol     MW 7910   3.281   3.401   7.875  0.4157 -0.8061  0.1256
 1246Sol     OW 7911   0.121   3.294   9.768  0.2113 -0.0535 -0.2235
 1246Sol     HW 7912   0.073   3.354   9.825  1.6344  1.0081 -0.1323
 1246Sol     HW 7913   0.173   3.240   9.827  1.5003  0.8844 -0.4838
 1246Sol     MW 7914   0.121   3.294   9.778 -0.2299  0.5596  0.3735
 1247Sol     OW 7915   3.199   0.551   8.266  0.1416  0.0984 -1.0448
 1247Sol     HW 7916   3.201   0.501   8.184  0.6591  1.0382 -1.6116
 1247Sol     HW 7917   3.113   0.593   8.266  0.6344  1.1329 -1.7446
 1247Sol     MW 7918   3.192   0.550   8.258 -0.0423 -0.1849  0.1496
 1248Sol     OW 7919   0.861   0.766   2.252 -0.0639  0.1336 -0.0776
 1248Sol     HW 7920   0.828   0.682   2.282  1.8777 -0.2257  1.1487
 1248Sol     HW 7921   0.803   0.791   2.180  0.0064 -2.7698 -1.1927
 1248Sol     MW 7922   0.853   0.761   2.248 -0.1453 -0.9297 -0.0553
 1249Sol     OW 7923   2.639   2.697   1.374  0.0514  0.4812  0.1433
 1249Sol     HW 7924   2.623   2.740   1.290 -0.8073  0.0547  0.0834
 1249Sol     HW 7925   2.592   2.750   1.438 -0.7182 -0.1628  0.1179
 1249Sol     MW 7926   2.634   2.706   1.372 -0.1481 -0.3614  0.1644
 1250Sol     OW 7927   2.749   1.696   2.186 -0.7919  0.0580 -0.0736
 1250Sol     HW 7928   2.711   1.729   2.268  0.7982 -0.2761  0.8100
 1250Sol     HW 7929   2.741   1.601   2.193 -1.4218  0.0591 -0.6956
 1250Sol     MW 7930   2.745   1.690   2.194  0.0204  0.0511 -0.2008
 1251Sol     OW 7931   2.929   2.259   4.269  0.7454  0.1760 -0.0603
 1251Sol     HW 7932   2.920   2.352   4.293 -0.7373  0.3158 -1.1041
 1251Sol     HW 7933   2.982   2.259   4.190 -0.2368  0.2282 -0.7261
 1251Sol     MW 7934   2.933   2.267   4.264 -0.0133 -0.5165  0.3679
 1252Sol     OW 7935   0.193   1.075   1.648  0.4913  0.4805 -0.0713
 1252Sol     HW 7936   0.124   1.023   1.689  0.0476  0.3057 -1.0232
 1252Sol     HW 7937   0.274   1.040   1.684  0.2273 -1.2427 -1.1042
 1252Sol     MW 7938   0.194   1.067   1.655 -0.0815 -0.4201  0.1158
 1253Sol     OW 7939   1.006   2.283   4.236  0.7994  0.0845 -0.4398
 1253Sol     HW 7940   1.065   2.317   4.168  0.6837  1.1250 -0.0260
 1253Sol     HW 7941   0.921   2.278   4.192 -0.2483  4.7857  0.7221
 1253Sol     MW 7942   1.004   2.286   4.226  0.1036  0.2147  0.3708
 1254Sol     OW 7943   1.532   2.559   5.155 -0.2246  0.0053 -0.3671
 1254Sol     HW 7944   1.494   2.515   5.079  0.8976  1.5361 -1.8186
 1254Sol     HW 7945   1.542   2.489   5.220  0.3059 -1.6243 -2.1816
 1254Sol     MW 7946   1.529   2.548   5.154 -0.1557 -0.7555  0.7779
 1255Sol     OW 7947   2.563   0.018   2.723 -0.0970  0.2062 -0.1061
 1255Sol     HW 7948   2.600  -0.035   2.652  0.4148 -1.4643  1.3532
 1255Sol     HW 7949   2.468   0.004   2.716  0.0299 -0.8297  0.2061
 1255Sol     MW 7950   2.558   0.012   2.716  0.1837  0.4836  0.3849
 1256Sol     OW 7951   0.224   0.619   9.336  0.1657  0.2301  0.5527
 1256Sol     HW 7952   0.316   0.596   9.344 -0.0343 -0.8233 -0.0240
 1256Sol     HW 7953   0.178   0.535   9.337 -0.7308  0.7047  0.1627
 1256Sol     MW 7954   0.228   0.609   9.337 -0.4325  0.0971 -0.0802
 1257Sol     OW 7955   0.820   1.199   4.020  0.5646  0.4431 -0.0497
 1257Sol     HW 7956   0.825   1.152   4.103  0.1440  2.0959  0.9347
 1257Sol     HW 7957   0.764   1.145   3.965  1.2100 -0.8837  0.5967
 1257Sol     MW 7958   0.815   1.190   4.022  0.5587  0.6463 -0.6477
 1258Sol     OW 7959   3.006   0.774   7.508  0.2022  0.1867 -0.4895
 1258Sol     HW 7960   2.967   0.840   7.451  1.1923  1.5644  0.3932
 1258Sol     HW 7961   2.939   0.707   7.518 -0.2347  0.2732 -2.6927
 1258Sol     MW 7962   2.997   0.774   7.504  0.4439 -0.2106  0.0658
 1259Sol     OW 7963   2.895   0.019   7.129  0.3713 -0.5210  0.0925
 1259Sol     HW 7964   2.844   0.009   7.209  0.3138 -2.8027 -0.1971
 1259Sol     HW 7965   2.978   0.056   7.158 -0.6297  1.1979  0.8331
 1259Sol     MW 7966   2.898   0.021   7.138 -0.6318  0.2921 -0.1285
 1260Sol     OW 7967   1.705   2.296   6.636  0.7529  0.1467  0.1221
 1260Sol     HW 7968   1.646   2.368   6.660  0.5454 -0.4003  1.2990
 1260Sol     HW 7969   1.724   2.252   6.719  0.9507 -1.0979 -0.5633
 1260Sol     MW 7970   1.701   2.298   6.646 -0.1496  0.3146 -0.0544
 1261Sol     OW 7971   2.160   1.258   7.383  0.3087 -0.3298  0.3735
 1261Sol     HW 7972   2.234   1.291   7.435 -1.1531  1.0026  1.6490
 1261Sol     HW 7973   2.140   1.173   7.422  0.7095 -0.3878  0.4644
 1261Sol     MW 7974   2.165   1.253   7.391 -0.4089  0.2040 -0.1514
 1262Sol     OW 7975   0.112   2.878   9.715  0.1208  0.1274 -0.0098
 1262Sol     HW 7976   0.045   2.915   9.773  0.9426  1.3596  0.1696
 1262Sol     HW 7977   0.146   2.803   9.763 -1.3676 -0.7446 -0.2605
 1262Sol     MW 7978   0.109   2.874   9.724 -0.1594  0.0689 -0.0878
 1263Sol     OW 7979   0.394   2.442   1.865  0.5931  0.1799  0.3500
 1263Sol     HW 7980   0.382   2.490   1.783 -1.5057  0.2817  0.6959
 1263Sol     HW 7981   0.361   2.501   1.933  0.7670 -0.5755  1.1009
 1263Sol     MW 7982   0.390   2.452   1.864  0.3548 -0.3033  0.0187
 1264Sol     OW 7983   0.840   0.850   2.897 -0.1284  0.3039  0.6522
 1264Sol     HW 7984   0.864   0.918   2.834 -2.0942  1.7755  1.4476
 1264Sol     HW 7985   0.920   0.834   2.947  0.8662  0.6608 -0.7779
 1264Sol     MW 7986   0.849   0.855   2.896 -0.1124 -0.4338  0.3576
 1265Sol     OW 7987   3.059   3.252   5.429 -0.1866  0.1448 -0.1431
 1265Sol     HW 7988   3.005   3.238   5.352 -0.7121  2.8122 -0.3006
 1265Sol     HW 7989   3.034   3.181   5.489 -2.3850  0.1467 -1.0146
 1265Sol     MW 7990   3.052   3.244   5.428  0.2309  0.5417 -0.3444
 1266Sol     OW 7991   0.635   0.529   8.098 -0.1304 -0.1022  0.0801
 1266Sol     HW 7992   0.631   0.579   8.179 -1.8637  1.5504 -0.9940
 1266Sol     HW 7993   0.581   0.452   8.114 -0.1989  0.0578  0.6125
 1266Sol     MW 7994   0.630   0.527   8.107 -0.0946  0.1766  0.0939
 1267Sol     OW 7995   2.610   0.509   8.858  0.0092 -0.0945  0.1528
 1267Sol     HW 7996   2.575   0.553   8.780 -0.0637 -0.3831  0.0231
 1267Sol     HW 7997   2.588   0.417   8.846  0.8174 -0.2828  0.0656
 1267Sol     MW 7998   2.605   0.505   8.850  0.3912  1.0918 -0.0391
 1268Sol     OW 7999   3.021   2.660   3.337 -0.1252 -0.0535  0.0696
 1268Sol     HW 8000   2.953   2.672   3.271  2.3113 -1.6098 -2.8391
 1268Sol     HW 8001   3.103   2.664   3.289  1.8062 -0.1892  3.1819
 1268Sol     MW 8002   3.022   2.661   3.327  0.5448 -0.1352 -0.1085
 1269Sol     OW 8003   1.771   2.435   3.757 -0.0623 -0.3246 -0.5594
 1269Sol     HW 8004   1.746   2.500   3.822 -1.0132 -0.8154 -0.4296
 1269Sol     HW 8005   1.745   2.351   3.795  0.5290 -0.7304 -1.0226
 1269Sol     MW 8006   1.767   2.433   3.766 -0.3572  0.4389  0.0214
 1270Sol     OW 8007   0.409   1.463   4.858 -0.5500 -0.7074 -0.1755
 1270Sol     HW 8008   0.445   1.422   4.779 -0.9805  0.9010 -1.2214
 1270Sol     HW 8009   0.478   1.452   4.924  0.4339 -0.7395 -1.1947
 1270Sol     MW 8010   0.419   1.458   4.857  0.2370  0.3066  0.0634
 1271Sol     OW 8011   0.511   0.827   9.832 -0.0604  0.3310 -0.7653
 1271Sol     HW 8012   0.584   0.887   9.845 -1.1317  1.4302  0.3559
 1271Sol     HW 8013   0.435   0.884   9.825 -1.0908 -0.8924  0.2025
 1271Sol     MW 8014   0.511   0.838   9.832  0.2436 -0.0250  0.5615
 1272Sol     OW 8015   2.672   3.180   9.430 -0.0271 -0.0463 -0.5401
 1272Sol     HW 8016   2.696   3.106   9.486 -0.7312  0.2090  0.1076
 1272Sol     HW 8017   2.714   3.161   9.347  1.1468 -0.3656  0.1139
 1272Sol     MW 8018   2.678   3.171   9.428 -0.5435 -0.1176  0.3901
 1273Sol     OW 8019   2.854   2.927   4.723  0.3085  0.3972  0.5828
 1273Sol     HW 8020   2.850   3.021   4.706  1.0797  0.6326  1.6007
 1273Sol     HW 8021   2.838   2.919   4.817  0.8809 -0.4268  0.6226
 1273Sol     MW 8022   2.852   2.935   4.730  0.4035 -0.1849 -0.0011
 1274Sol     OW 8023   0.736   1.780   9.134 -0.6839 -0.6844  0.0509
 1274Sol     HW 8024   0.722   1.688   9.154 -1.2009 -0.4655  0.7457
 1274Sol     HW 8025   0.825   1.785   9.100  0.2214 -1.1074  2.2647
 1274Sol     MW 8026   0.743   1.773   9.133  0.2451 -0.4505 -0.1645
 1275Sol     OW 8027   1.022   1.127   6.162  0.1150 -0.2216 -0.4262
 1275Sol     HW 8028   0.944   1.124   6.107 -1.4473 -1.5575  1.7819
 1275Sol     HW 8029   1.024   1.042   6.206  2.8551 -0.2408 -0.4524
 1275Sol     MW 8030   1.015   1.119   6.161  0.6130 -0.0639 -0.1296
 1276Sol     OW 8031   1.264   0.943   3.777  0.3221 -0.1290  0.0906
 1276Sol     HW 8032   1.307   0.995   3.845  0.1117  0.5942 -0.3313
 1276Sol     HW 8033   1.246   0.859   3.820  3.2933 -0.9226 -0.1005
 1276Sol     MW 8034   1.266   0.940   3.787  0.0512 -0.2959 -0.3390
 1277Sol     OW 8035   0.086   0.249   1.851  0.3106 -0.3711 -0.0900
 1277Sol     HW 8036   0.138   0.315   1.896 -2.2148  1.1941  0.6072
 1277Sol     HW 8037   0.147   0.210   1.787  2.3706  1.2230  0.8541
 1277Sol     MW 8038   0.096   0.251   1.849  0.0619 -0.5859  0.7338
 1278Sol     OW 8039   2.959   0.730   4.036 -0.0303  0.6366 -0.5826
 1278Sol     HW 8040   2.980   0.787   3.963  0.4397  1.4939  0.2129
 1278Sol     HW 8041   3.044   0.695   4.065 -0.0464  1.4320  0.4657
 1278Sol     MW 8042   2.969   0.732   4.032 -0.0298 -0.1538 -0.3729
 1279Sol     OW 8043   2.357   3.100   9.375  0.1190 -0.1818 -0.2977
 1279Sol     HW 8044   2.442   3.078   9.414  0.5031  0.6734 -0.6213
 1279Sol     HW 8045   2.374   3.182   9.328 -0.6532 -0.5271 -1.1756
 1279Sol     MW 8046   2.366   3.106   9.374  0.4405 -0.3739 -0.3668
 1280Sol     OW 8047   1.321   1.658   1.908  0.2001 -0.0276 -0.6376
 1280Sol     HW 8048   1.333   1.654   1.813  1.4528 -0.0068 -0.4968
 1280Sol     HW 8049   1.338   1.750   1.930 -0.8450  0.1366 -0.4748
 1280Sol     MW 8050   1.324   1.666   1.901  0.0251 -0.1828 -0.1200
 1281Sol     OW 8051   1.739   2.820   8.725  0.4137 -0.5345  0.0307
 1281Sol     HW 8052   1.654   2.850   8.755  0.7290  1.4031 -0.9867
 1281Sol     HW 8053   1.798   2.836   8.799  0.3327  0.1677 -0.0612
 1281Sol     MW 8054   1.737   2.824   8.735 -0.0151  0.5226  0.2140
 1282Sol     OW 8055   2.783   3.153   6.058  0.3471  0.2088 -0.4666
 1282Sol     HW 8056   2.774   3.223   6.123  0.3629  1.9981 -2.3323
 1282Sol     HW 8057   2.859   3.103   6.087 -0.7468 -0.1345  1.8828
 1282Sol     MW 8058   2.789   3.155   6.066 -0.6120 -0.4498 -0.4241
 1283Sol     OW 8059   1.253   0.752   7.283  0.0902  0.6582 -0.2068
 1283Sol     HW 8060   1.184   0.818   7.278 -1.2614 -0.8426 -2.5604
 1283Sol     HW 8061   1.216   0.675   7.238  2.0461 -1.3109  1.4083
 1283Sol     MW 8062   1.243   0.751   7.279  0.6081  0.8139 -0.4127
 1284Sol     OW 8063   0.677   0.089   6.885 -0.1121  0.2551  0.0900
 1284Sol     HW 8064   0.733   0.156   6.845 -0.3588  1.6549  2.0160
 1284Sol     HW 8065   0.721   0.065   6.966 -1.7612  0.6444  1.1305
 1284Sol     MW 8066   0.686   0.093   6.888  0.2643 -0.2951 -0.3039
 1285Sol     OW 8067   2.832   1.291   6.322 -0.0267 -0.4947  0.1011
 1285Sol     HW 8068   2.838   1.229   6.395  0.1576 -0.8936 -0.2545
 1285Sol     HW 8069   2.836   1.236   6.244  2.8031  0.1668 -0.2564
 1285Sol     MW 8070   2.833   1.280   6.322  0.3313  0.4789 -0.4746
 1286Sol     OW 8071   1.127   2.101   6.162  0.4658 -0.0468  0.0260
 1286Sol     HW 8072   1.178   2.151   6.225 -1.5232  0.6460  1.1067
 1286Sol     HW 8073   1.131   2.011   6.194  2.7671 -0.4037 -1.0912
 1286Sol     MW 8074   1.132   2.097   6.170  0.5374 -0.3374  0.4100
 1287Sol     OW 8075   2.381   2.557   5.360  0.1142  0.2562 -0.2412
 1287Sol     HW 8076   2.412   2.614   5.431 -0.6169 -0.7939  0.9551
 1287Sol     HW 8077   2.291   2.586   5.344 -0.3490 -0.7030  0.5520
 1287Sol     MW 8078   2.376   2.565   5.365 -0.0494 -0.1883  0.2191
 1288Sol     OW 8079   3.311   3.248   8.647 -0.6309 -0.3952 -0.6779
 1288Sol     HW 8080   3.226   3.281   8.618 -0.3869 -0.2165 -1.1955
 1288Sol     HW 8081   3.328   3.293   8.730 -0.8112 -0.0522 -0.8284
 1288Sol     MW 8082   3.305   3.255   8.652  0.3534  0.3878 -0.3997
 1289Sol     OW 8083   2.048   3.134   1.403  0.2422  0.5557 -0.1266
 1289Sol     HW 8084   2.042   3.196   1.331  0.4920 -0.7334 -1.2698
 1289Sol     HW 8085   2.024   3.185   1.481  0.4751  2.0783 -1.0408
 1289Sol     MW 8086   2.045   3.144   1.404 -0.1894  0.0089 -0.2765
 1290Sol     OW 8087   1.648   1.289   8.530 -0.5852 -0.4755 -0.2940
 1290Sol     HW 8088   1.645   1.371   8.579  1.9992 -0.4934 -0.0658
 1290Sol     HW 8089   1.584   1.302   8.459 -0.7149  1.4615  0.1416
 1290Sol     MW 8090   1.642   1.298   8.528  0.6826 -0.0373 -0.1218
 1291Sol     OW 8091   1.875   0.154   3.564  0.1239  0.6448 -0.1958
 1291Sol     HW 8092   1.882   0.065   3.529 -1.3283 -0.2559  1.7355
 1291Sol     HW 8093   1.829   0.203   3.496  0.5918 -0.1660 -1.1060
 1291Sol     MW 8094   1.872   0.151   3.555  0.2918 -0.2666 -0.4776
 1292Sol     OW 8095   2.945   0.596   7.943 -0.2275  0.3470  0.1835
 1292Sol     HW 8096   2.872   0.600   8.005 -0.1342  2.1932  0.1937
 1292Sol     HW 8097   2.907   0.561   7.863 -1.2840  1.8834 -0.0087
 1292Sol     MW 8098   2.935   0.593   7.942 -0.0158  0.4731  0.1372
 1293Sol     OW 8099   3.169   2.181   5.516  0.5408 -0.2550  0.1846
 1293Sol     HW 8100   3.092   2.168   5.572  1.3588  0.3562  1.4869
 1293Sol     HW 8101   3.159   2.270   5.482  0.0590 -0.6159 -0.6409
 1293Sol     MW 8102   3.161   2.188   5.518 -0.2649  0.9119  0.2517
 1294Sol     OW 8103   3.274   2.883   2.926 -0.2883 -0.9076 -0.0502
 1294Sol     HW 8104   3.186   2.850   2.947 -1.2023  0.1168 -2.1493
 1294Sol     HW 8105   3.261   2.940   2.850  1.8679  1.0960  1.0435
 1294Sol     MW 8106   3.265   2.885   2.921 -0.1294 -0.1242  0.1262
 1295Sol     OW 8107   3.162   1.141   2.858  0.2546 -0.5124 -0.1051
 1295Sol     HW 8108   3.078   1.142   2.812  0.0488 -2.6496  0.1823
 1295Sol     HW 8109   3.187   1.049   2.862  3.6510  0.2290 -1.9928
 1295Sol     MW 8110   3.157   1.133   2.854 -0.6026 -0.1301 -0.0570
 1296Sol     OW 8111   2.491   2.244   4.918 -0.7766 -0.3499 -0.2018
 1296Sol     HW 8112   2.537   2.302   4.857 -0.1749 -0.6688 -0.0544
 1296Sol     HW 8113   2.430   2.195   4.864  0.4480 -1.3478 -0.7156
 1296Sol     MW 8114   2.490   2.245   4.908  0.6051 -0.2236  0.5542
 1297Sol     OW 8115   1.810   0.921   6.852  0.4873 -0.7911 -0.2621
 1297Sol     HW 8116   1.781   0.937   6.942  1.0744 -0.9805 -0.0334
 1297Sol     HW 8117   1.866   0.996   6.830  1.3505 -1.3509 -0.0180
 1297Sol     MW 8118   1.813   0.929   6.858 -0.4929  0.7216 -0.3076
 1298Sol     OW 8119   2.042   0.672   1.380  0.0293  0.1949 -0.5172
 1298Sol     HW 8120   1.975   0.703   1.441  2.7766  1.7809  1.7979
 1298Sol     HW 8121   2.054   0.580   1.403 -0.0997  0.3702  0.2905
 1298Sol     MW 8122   2.037   0.666   1.388  0.0066  0.3512  0.0173
 1299Sol     OW 8123   2.342   1.606   2.128  0.5822 -0.4092 -0.2219
 1299Sol     HW 8124   2.341   1.637   2.219  1.4354  0.2446 -0.4237
 1299Sol     HW 8125   2.416   1.653   2.088 -1.2993  1.2175 -1.9198
 1299Sol     MW 8126   2.349   1.613   2.133  0.0235 -0.5961  0.0421
 1300Sol     OW 8127   0.990   0.056   2.920  0.2788  0.1940 -0.0167
 1300Sol     HW 8128   1.006  -0.039   2.921  2.2272  0.5121  1.2995
 1300Sol     HW 8129   1.038   0.087   2.844 -1.7958 -0.0698 -1.4866
 1300Sol     MW 8130   0.995   0.050   2.913  0.3844  0.0750  0.2767
 1301Sol     OW 8131   2.400   1.157   2.487 -0.4655  0.2878 -0.2678
 1301Sol     HW 8132   2.426   1.249   2.483  0.4898 -0.0211 -1.5086
 1301Sol     HW 8133   2.468   1.115   2.541 -0.6827  0.2348 -0.0351
 1301Sol     MW 8134   2.409   1.161   2.492  0.1462 -0.2818 -0.0433
 1302Sol     OW 8135   0.823   2.504   3.289 -0.5840  0.3607 -0.5340
 1302Sol     HW 8136   0.907   2.549   3.279  0.3917 -1.0158  1.1001
 1302Sol     HW 8137   0.771   2.533   3.214  0.5370  2.9799 -0.3581
 1302Sol     MW 8138   0.826   2.511   3.281 -0.1341  0.1234 -0.3923
 1303Sol     OW 8139   1.174   0.245   8.377  0.1073  0.0579  0.2042
 1303Sol     HW 8140   1.221   0.206   8.304 -1.3234  0.5000 -0.9752
 1303Sol     HW 8141   1.132   0.170   8.421 -1.4416  0.0954 -1.1871
 1303Sol     MW 8142   1.174   0.235   8.375  0.5438  0.1671 -0.2800
 1304Sol     OW 8143   2.948   0.406   6.413 -0.4693 -0.5116  0.1753
 1304Sol     HW 8144   3.022   0.465   6.396 -0.7726  0.8172  3.2214
 1304Sol     HW 8145   2.872   0.454   6.382 -0.2226 -1.3833 -1.8561
 1304Sol     MW 8146   2.948   0.416   6.409 -0.3004  0.1835 -0.3034
 1305Sol     OW 8147   0.419   0.321   7.790 -0.0623  0.2669 -0.4204
 1305Sol     HW 8148   0.438   0.337   7.882 -0.2704  1.7347 -0.6195
 1305Sol     HW 8149   0.450   0.399   7.745 -0.7600 -0.0612 -1.4976
 1305Sol     MW 8150   0.424   0.329   7.794  0.1750 -0.4506  0.0616
 1306Sol     OW 8151   0.868   2.381   5.104  0.3595 -0.0483 -0.0164
 1306Sol     HW 8152   0.921   2.437   5.160  0.0388  0.4424 -0.2025
 1306Sol     HW 8153   0.932   2.330   5.053  0.6489  0.4762 -0.1778
 1306Sol     MW 8154   0.878   2.381   5.104 -0.4682 -0.2283 -0.6180
 1307Sol     OW 8155   2.064   2.263   3.956 -0.1143 -0.4497  0.3385
 1307Sol     HW 8156   1.980   2.288   3.992 -0.3525 -0.3121 -0.2985
 1307Sol     HW 8157   2.112   2.226   4.030 -1.4505 -2.3357  0.2943
 1307Sol     MW 8158   2.061   2.262   3.966 -0.4915  0.3453  0.0411
 1308Sol     OW 8159   2.507   3.079   2.852  0.0182  0.4015 -0.0458
 1308Sol     HW 8160   2.426   3.041   2.888 -0.2153  0.6470 -0.3124
 1308Sol     HW 8161   2.519   3.160   2.901  1.1316 -0.5516  1.3223
 1308Sol     MW 8162   2.501   3.083   2.860  0.0649 -0.0121 -0.4507
 1309Sol     OW 8163   1.789   3.419   5.230 -0.0260 -0.0972 -0.1267
 1309Sol     HW 8164   1.846   3.489   5.198  1.7669 -0.7606  1.4761
 1309Sol     HW 8165   1.819   3.403   5.320 -1.9586 -1.3069  0.3304
 1309Sol     MW 8166   1.797   3.424   5.235 -0.2856  0.3679 -0.1816
 1310Sol     OW 8167   1.332   2.579   7.235  0.4576  0.4985  0.7465
 1310Sol     HW 8168   1.276   2.656   7.225 -1.8957 -0.8795  2.8986
 1310Sol     HW 8169   1.407   2.610   7.286 -2.3405  0.6073  5.0664
 1310Sol     MW 8170   1.333   2.588   7.238  0.0585 -0.0022  0.0691
 1311Sol     OW 8171   1.811   0.258   1.775 -0.1805  0.2079 -0.0390
 1311Sol     HW 8172   1.789   0.282   1.685  1.8491  0.6243 -0.4627
 1311Sol     HW 8173   1.744   0.300   1.829 -0.7931  0.8599 -1.2915
 1311Sol     MW 8174   1.803   0.264   1.772 -0.5030 -0.3557 -0.2075
 1312Sol     OW 8175   1.603   0.312   5.455  0.0523  0.3830 -0.1722
 1312Sol     HW 8176   1.693   0.294   5.481  0.2502 -0.7547 -1.5761
 1312Sol     HW 8177   1.605   0.400   5.417  0.2004  1.1128  1.4877
 1312Sol     MW 8178   1.611   0.318   5.454  0.2687 -0.4718  0.0693
 1313Sol     OW 8179   2.009   2.815   9.155 -0.2594 -0.0579  0.3388
 1313Sol     HW 8180   2.084   2.757   9.142  0.9479  0.9499  2.5750
 1313Sol     HW 8181   1.941   2.758   9.190  0.8821 -0.1879  2.4165
 1313Sol     MW 8182   2.010   2.804   9.157  0.4208  0.4719  0.3248
 1314Sol     OW 8183   0.535   2.832   3.362  0.1367  0.6176  0.4031
 1314Sol     HW 8184   0.472   2.898   3.391 -2.3298 -1.5387  0.2269
 1314Sol     HW 8185   0.550   2.779   3.440 -0.8493 -0.8340 -0.3665
 1314Sol     MW 8186   0.531   2.833   3.372 -0.7900 -0.4169 -0.0522
 1315Sol     OW 8187   2.146   0.819   5.678 -0.0749 -0.2847  0.4369
 1315Sol     HW 8188   2.087   0.893   5.693  0.7015  0.2416  0.9636
 1315Sol     HW 8189   2.209   0.824   5.750  1.9244  0.5100 -1.2896
 1315Sol     MW 8190   2.146   0.826   5.686 -0.4335  0.4901  0.2641
 1316Sol     OW 8191   2.319   2.005   3.690 -0.1009 -0.7585 -0.2824
 1316Sol     HW 8192   2.269   2.084   3.709 -1.8304 -1.1661 -2.8148
 1316Sol     HW 8193   2.382   2.032   3.623  0.3408 -1.1910 -0.0475
 1316Sol     MW 8194   2.320   2.014   3.686  0.0223 -0.0416  0.1013
 1317Sol     OW 8195   1.132   3.181   7.863 -0.0894  0.1539 -0.0089
 1317Sol     HW 8196   1.086   3.223   7.935 -1.7276 -0.5864 -0.5727
 1317Sol     HW 8197   1.063   3.135   7.815  1.1023 -0.1310 -1.5031
 1317Sol     MW 8198   1.122   3.181   7.865  0.4776  0.0808 -0.0633
 1318Sol     OW 8199   2.453   1.178   9.686  0.8048  0.6774  0.0635
 1318Sol     HW 8200   2.407   1.255   9.720 -1.3030 -1.6207  2.6265
 1318Sol     HW 8201   2.441   1.183   9.591 -2.6594  1.4368  0.4862
 1318Sol     MW 8202   2.448   1.186   9.680 -0.0094 -0.2938 -0.4054
 1319Sol     OW 8203   2.516   3.336   2.951 -0.7810  0.1383  0.5124
 1319Sol     HW 8204   2.453   3.408   2.959 -0.4845  0.3837  0.6444
 1319Sol     HW 8205   2.581   3.368   2.889 -0.9946 -0.2680  0.0712
 1319Sol     MW 8206   2.516   3.345   2.946  0.3318  0.0113  0.0288
 1320Sol     OW 8207   1.784   1.230   3.113 -0.0322 -0.8249 -0.2403
 1320Sol     HW 8208   1.831   1.307   3.082 -0.3190 -0.9568 -1.0177
 1320Sol     HW 8209   1.846   1.186   3.171  0.6911 -0.8241 -0.9987
 1320Sol     MW 8210   1.794   1.233   3.115  0.0812 -0.3022  0.5263
 1321Sol     OW 8211   0.666   3.206   5.891  0.1270 -0.0779  0.7232
 1321Sol     HW 8212   0.629   3.129   5.936  1.3609 -0.3436  1.2962
 1321Sol     HW 8213   0.589   3.252   5.856 -0.7148 -0.8966  1.4567
 1321Sol     MW 8214   0.655   3.203   5.892  0.5479 -0.2289 -0.1570
 1322Sol     OW 8215   1.369   1.499   5.298  0.0710  0.2034 -0.6872
 1322Sol     HW 8216   1.456   1.478   5.263 -0.3556 -0.9728 -1.0785
 1322Sol     HW 8217   1.386   1.550   5.376  1.1323 -0.2684 -0.6002
 1322Sol     MW 8218   1.378   1.501   5.302 -0.0096  0.0170 -0.1050
 1323Sol     OW 8219   3.024   1.982   4.678 -0.3137 -0.4496  0.0619
 1323Sol     HW 8220   2.964   2.044   4.636  0.0233  0.7950  1.4007
 1323Sol     HW 8221   3.092   1.966   4.612 -1.6946 -1.3120 -1.2020
 1323Sol     MW 8222   3.025   1.986   4.668 -0.0513  0.8894 -0.0707
 1324Sol     OW 8223   3.019   3.317   9.166 -0.5891  0.1323  0.1359
 1324Sol     HW 8224   3.084   3.380   9.195 -0.3832 -0.4486  0.9330
 1324Sol     HW 8225   2.937   3.366   9.163 -0.0954  0.9062 -1.0413
 1324Sol     MW 8226   3.017   3.327   9.168  0.4935 -0.2541  0.6232
 1325Sol     OW 8227   2.321   1.500   3.337  0.1633  0.5141  0.3244
 1325Sol     HW 8228   2.391   1.558   3.367  0.9940  0.2968 -1.1248
 1325Sol     HW 8229   2.342   1.483   3.245 -0.3140 -1.7226  0.6051
 1325Sol     MW 8230   2.329   1.504   3.331 -0.0819  0.3487  0.2572
 1326Sol     OW 8231   2.712   2.225   5.604  0.5334 -0.3666 -0.2080
 1326Sol     HW 8232   2.640   2.253   5.661 -0.0209 -1.6664 -0.2528
 1326Sol     HW 8233   2.711   2.287   5.532  0.7520  0.8454  0.8185
 1326Sol     MW 8234   2.705   2.233   5.603 -1.0935  0.0418 -0.2343
 1327Sol     OW 8235   1.711   1.512   9.782 -0.5616 -0.3111 -0.7380
 1327Sol     HW 8236   1.634   1.456   9.792  0.2197 -1.2212  0.3165
 1327Sol     HW 8237   1.701   1.579   9.850  0.0237 -0.9544 -0.0163
 1327Sol     MW 8238   1.703   1.513   9.789 -0.2756 -0.6324  0.6655
 1328Sol     OW 8239   2.880   1.002   9.020 -0.2846 -0.4439  0.8919
 1328Sol     HW 8240   2.814   1.072   9.017 -0.3536 -0.6072 -2.5097
 1328Sol     HW 8241   2.963   1.049   9.032 -0.1645  0.3953 -2.8066
 1328Sol     MW 8242   2.881   1.013   9.021  0.2179  0.0022 -0.0504
 1329Sol     OW 8243   2.004   0.468   5.903  0.4549 -1.0282 -0.1792
 1329Sol     HW 8244   2.035   0.413   5.831 -0.2951 -0.8196 -0.6590
 1329Sol     HW 8245   1.909   0.458   5.902  0.4970 -1.8726  1.4534
 1329Sol     MW 8246   1.999   0.462   5.897  0.1284  0.0637 -0.2316
 1330Sol     OW 8247   3.257   2.432   7.268  0.1037  0.1392 -0.5836
 1330Sol     HW 8248   3.173   2.460   7.231  0.6840  0.8012 -1.4143
 1330Sol     HW 8249   3.276   2.496   7.336  0.1790  0.2739 -0.7324
 1330Sol     MW 8250   3.251   2.440   7.271 -0.2359  0.2639  0.4566
 1331Sol     OW 8251   3.131   2.601   6.816  0.2320 -0.5763 -0.3677
 1331Sol     HW 8252   3.178   2.561   6.743 -0.0631  0.4128 -1.1161
 1331Sol     HW 8253   3.116   2.691   6.788 -1.5485 -0.6948  0.0984
 1331Sol     MW 8254   3.134   2.605   6.807 -0.5419 -0.0370  0.4019
 1332Sol     OW 8255   2.847   1.099   6.516  0.2513 -0.7099 -0.8000
 1332Sol     HW 8256   2.804   1.040   6.455 -0.0880 -1.1718 -0.1255
 1332Sol     HW 8257   2.940   1.089   6.500  0.1026  1.7940 -3.6968
 1332Sol     MW 8258   2.851   1.093   6.509 -0.6882  0.4581 -0.1888
 1333Sol     OW 8259   2.546   2.594   4.454 -0.0997 -0.1880 -0.0939
 1333Sol     HW 8260   2.597   2.664   4.494  1.1907 -1.3574  0.3329
 1333Sol     HW 8261   2.608   2.549   4.396 -1.0367 -0.6933 -0.7216
 1333Sol     MW 8262   2.556   2.596   4.452 -0.0134 -0.1419  0.3516
 1334Sol     OW 8263   2.679   1.566   3.787 -0.2790  0.2332 -0.1822
 1334Sol     HW 8264   2.754   1.621   3.808 -0.0735  0.3047 -1.0674
 1334Sol     HW 8265   2.717   1.491   3.740 -0.4471 -1.1181  1.7826
 1334Sol     MW 8266   2.689   1.564   3.785  0.4413  0.1499 -0.3355
 1335Sol     OW 8267   1.002   1.562   4.605 -1.0402  0.8787  0.2133
 1335Sol     HW 8268   1.044   1.498   4.663 -1.8402  0.1455 -0.0038
 1335Sol     HW 8269   1.056   1.641   4.613  0.1248  0.0875  0.2549
 1335Sol     MW 8270   1.011   1.563   4.611 -0.2819 -0.3050 -0.2761
 1336Sol     OW 8271   1.516   3.111   3.449 -0.1914 -0.3900 -0.5124
 1336Sol     HW 8272   1.542   3.123   3.358  1.5427 -1.0221 -0.1239
 1336Sol     HW 8273   1.551   3.188   3.494  2.3203 -1.9004  0.2516
 1336Sol     MW 8274   1.522   3.119   3.445 -0.2132  0.3355  0.5453
 1337Sol     OW 8275   0.085   1.304   4.857  0.1839  0.7473 -0.0649
 1337Sol     HW 8276   0.118   1.364   4.924  1.5353 -0.6935  0.5970
 1337Sol     HW 8277  -0.007   1.326   4.848 -0.2891  0.2365  3.0917
 1337Sol     MW 8278   0.080   1.311   4.862 -0.5327  0.2490 -0.2148
 1338Sol     OW 8279   1.510   2.376   5.336 -0.1621  0.4803 -0.1057
 1338Sol     HW 8280   1.592   2.359   5.381  0.0779  0.6228 -0.4912
 1338Sol     HW 8281   1.493   2.298   5.284  0.6241  1.1517 -1.3913
 1338Sol     MW 8282   1.516   2.368   5.336  0.3302 -0.0122 -0.2049
 1339Sol     OW 8283   3.075   1.525   8.634  0.3031  0.6109 -0.0641
 1339Sol     HW 8284   3.088   1.458   8.701  0.1670  0.3908 -0.2572
 1339Sol     HW 8285   3.014   1.588   8.673  1.4829  1.3446  0.6317
 1339Sol     MW 8286   3.070   1.525   8.643 -0.5655 -0.2762 -0.3498
 1340Sol     OW 8287   0.826   0.794   5.582  0.0561 -0.1340 -0.1771
 1340Sol     HW 8288   0.734   0.813   5.562  0.0896 -0.9149 -1.1743
 1340Sol     HW 8289   0.873   0.873   5.557 -0.0703 -0.6085 -2.0700
 1340Sol     MW 8290   0.822   0.802   5.578  0.2326 -0.1421  0.0832
 1341Sol     OW 8291   1.890   1.707   4.503  0.0467 -0.1324  0.4520
 1341Sol     HW 8292   1.874   1.753   4.421 -0.0636  1.6991  1.4548
 1341Sol     HW 8293   1.921   1.621   4.477  1.1182  0.8110 -1.5138
 1341Sol     MW 8294   1.891   1.704   4.494 -0.3393  0.1460  0.3189
 1342Sol     OW 8295   1.987   2.712   4.550  0.3167 -0.1919  0.6426
 1342Sol     HW 8296   2.041   2.680   4.622 -1.1109 -3.3789  0.3652
 1342Sol     HW 8297   1.916   2.648   4.542 -0.9711  1.4611 -1.9425
 1342Sol     MW 8298   1.986   2.704   4.556 -0.2173 -0.4650 -0.3260
 1343Sol     OW 8299   1.818   3.419   2.139 -0.1048 -0.3995  0.5978
 1343Sol     HW 8300   1.737   3.471   2.141  0.4219  0.4103  2.9839
 1343Sol     HW 8301   1.886   3.481   2.164  1.2003 -1.2261 -0.8241
 1343Sol     MW 8302   1.817   3.429   2.141  0.2693 -0.1524  0.5258
 1344Sol     OW 8303   3.111   0.306   6.602  0.2522 -0.2484 -0.2252
 1344Sol     HW 8304   3.157   0.228   6.571 -0.5172 -0.5570 -0.6107
 1344Sol     HW 8305   3.054   0.330   6.529  0.3277  0.5476 -0.0225
 1344Sol     MW 8306   3.110   0.301   6.592 -1.0664 -0.1598 -0.4114
 1345Sol     OW 8307   2.704   2.607   5.614  0.0390  0.2287  0.0991
 1345Sol     HW 8308   2.748   2.562   5.541  1.2552  0.3982  0.7172
 1345Sol     HW 8309   2.725   2.699   5.600 -1.3027  0.4677 -0.3863
 1345Sol     MW 8310   2.710   2.611   5.606  0.2218  0.2783 -0.9587
 1346Sol     OW 8311   1.926   1.880   3.153 -0.2543 -0.5872 -0.0204
 1346Sol     HW 8312   1.944   1.866   3.246 -0.6148 -0.1874  0.1143
 1346Sol     HW 8313   1.835   1.911   3.151  0.2196  0.8228 -0.3777
 1346Sol     MW 8314   1.919   1.882   3.161  0.0971  0.0902 -0.1091
 1347Sol     OW 8315   2.005   3.381   8.751  0.0484 -0.0623  0.1111
 1347Sol     HW 8316   1.953   3.393   8.831  1.0578 -0.0930  0.7709
 1347Sol     HW 8317   1.986   3.291   8.724  0.7833 -0.5200  1.0950
 1347Sol     MW 8318   1.998   3.374   8.756 -0.1786  0.1192  0.3044
 1348Sol     OW 8319   0.442   1.048   5.768  0.2626 -0.1054 -0.2398
 1348Sol     HW 8320   0.437   1.034   5.674 -2.1782  2.6310 -0.5846
 1348Sol     HW 8321   0.518   1.105   5.780  0.0330  0.2940 -0.6737
 1348Sol     MW 8322   0.448   1.052   5.761  0.8193 -0.5901  0.3249
 1349Sol     OW 8323   1.615   2.005   9.310  0.2495 -0.1262  0.1273
 1349Sol     HW 8324   1.636   1.913   9.322  1.7825  0.0192 -1.2147
 1349Sol     HW 8325   1.585   2.012   9.219  1.1814  0.8569 -0.1209
 1349Sol     MW 8326   1.614   1.998   9.303  0.1217  0.1016 -0.4916
 1350Sol     OW 8327   0.919   0.794   7.451 -0.1317  0.4677  0.3150
 1350Sol     HW 8328   0.902   0.803   7.544 -0.5495 -0.2349  0.3145
 1350Sol     HW 8329   0.984   0.861   7.431  0.4680  0.1727  1.2419
 1350Sol     MW 8330   0.923   0.800   7.457 -0.2603 -0.4565  0.4938
 1351Sol     OW 8331   1.619   2.805   2.566 -1.0152 -0.0118  0.5799
 1351Sol     HW 8332   1.547   2.807   2.503 -0.7505  0.7242  0.3032
 1351Sol     HW 8333   1.697   2.788   2.514 -0.7895  0.6471  0.6936
 1351Sol     MW 8334   1.619   2.804   2.556 -0.8145 -0.0870 -0.2728
 1352Sol     OW 8335   1.553   2.534   6.703 -0.3125  0.0166 -0.3816
 1352Sol     HW 8336   1.627   2.573   6.749  1.1555  1.5843 -3.8545
 1352Sol     HW 8337   1.482   2.534   6.767  1.2675  3.1839  1.5227
 1352Sol     MW 8338   1.553   2.538   6.713  0.1803 -0.3674 -0.2341
 1353Sol     OW 8339   2.220   1.041   9.271 -0.0267 -0.5920 -0.2237
 1353Sol     HW 8340   2.213   0.982   9.195 -1.8270 -1.1468  0.3396
 1353Sol     HW 8341   2.149   1.103   9.259  1.2073  0.8389 -0.2475
 1353Sol     MW 8342   2.213   1.041   9.263  0.3039  0.6859  0.0776
 1354Sol     OW 8343   2.717   3.007   6.750 -0.0604  0.6446  0.1896
 1354Sol     HW 8344   2.629   3.038   6.772 -1.2454 -2.8882  0.6357
 1354Sol     HW 8345   2.703   2.935   6.689  2.4968 -0.4075  0.7943
 1354Sol     MW 8346   2.708   3.003   6.747  0.0397  0.4204 -0.7059
 1355Sol     OW 8347   2.247   0.328   4.857  0.5441 -0.4366  0.5512
 1355Sol     HW 8348   2.292   0.267   4.915 -0.4348 -1.0092  0.7271
 1355Sol     HW 8349   2.183   0.274   4.811 -0.9351  0.6058  1.3490
 1355Sol     MW 8350   2.245   0.318   4.858  0.1685  0.4769  0.2073
 1356Sol     OW 8351   0.308   0.720   3.727 -0.4543 -0.4114  0.4103
 1356Sol     HW 8352   0.278   0.678   3.807 -0.6914 -0.0492  0.5111
 1356Sol     HW 8353   0.312   0.814   3.749 -2.5301 -0.0561 -0.6240
 1356Sol     MW 8354   0.306   0.725   3.736  0.2071 -0.0615  0.0465
 1357Sol     OW 8355   2.190   1.977   8.170 -0.3896  0.2457  0.6765
 1357Sol     HW 8356   2.143   1.966   8.252 -0.5741  0.3605  0.5889
 1357Sol     HW 8357   2.179   1.894   8.124  0.0716  0.0349  0.9483
 1357Sol     MW 8358   2.185   1.969   8.173 -0.7596  0.1986 -0.4405
 1358Sol     OW 8359   2.117   2.361   4.363 -0.4483  0.1119 -0.0120
 1358Sol     HW 8360   2.124   2.336   4.455 -0.8769 -0.2995 -0.0899
 1358Sol     HW 8361   2.181   2.431   4.352 -0.9708  0.7316  0.7993
 1358Sol     MW 8362   2.123   2.365   4.370  0.1195 -0.9218 -0.1028
 1359Sol     OW 8363   1.642   1.959   2.382 -0.2344 -0.1512 -0.5404
 1359Sol     HW 8364   1.699   1.951   2.458 -0.9643  0.0328  0.0320
 1359Sol     HW 8365   1.607   2.048   2.388 -0.2542 -0.1189 -1.1229
 1359Sol     MW 8366   1.644   1.967   2.389 -0.7227 -0.1569  0.3733
 1360Sol     OW 8367   0.335   0.280   9.565  0.2424 -0.3282 -0.1801
 1360Sol     HW 8368   0.323   0.203   9.621 -0.2962 -1.2982 -1.5842
 1360Sol     HW 8369   0.334   0.354   9.625  2.5708 -1.5282  1.4107
 1360Sol     MW 8370   0.333   0.280   9.576 -0.3038  0.1117  0.0652
 1361Sol     OW 8371   0.343   3.072   1.814 -0.6223 -0.0660  0.6566
 1361Sol     HW 8372   0.292   3.019   1.875  0.5707  0.8303  2.4839
 1361Sol     HW 8373   0.278   3.124   1.767 -1.5251 -0.2287  1.7081
 1361Sol     MW 8374   0.333   3.072   1.815  0.7316  0.0941  0.0255
 1362Sol     OW 8375   3.093   0.814   3.285  0.2701  0.3014  0.5063
 1362Sol     HW 8376   3.071   0.831   3.377  2.2965  3.1813  0.5273
 1362Sol     HW 8377   3.178   0.771   3.288  0.0140 -0.2487 -0.0024
 1362Sol     MW 8378   3.098   0.812   3.293  0.0621 -0.6604 -0.6713
 1363Sol     OW 8379   0.222   0.489   8.991 -0.2794 -0.3550  0.3769
 1363Sol     HW 8380   0.145   0.538   8.965 -0.2759  0.0371  1.1149
 1363Sol     HW 8381   0.189   0.422   9.050  0.2071  1.0846  2.3105
 1363Sol     MW 8382   0.213   0.487   8.994  0.0139 -0.0654 -0.3386
 1364Sol     OW 8383   1.526   0.995   2.880 -0.3904 -0.1539  0.2974
 1364Sol     HW 8384   1.597   0.954   2.832  0.3345  0.5422  0.7639
 1364Sol     HW 8385   1.534   0.961   2.969 -1.6378 -1.3227 -0.0205
 1364Sol     MW 8386   1.533   0.989   2.884 -0.2330  0.0960 -0.1663
 1365Sol     OW 8387   0.463   1.282   2.481 -0.6838  0.4042 -0.3686
 1365Sol     HW 8388   0.420   1.197   2.475 -1.5004  0.7493  0.3015
 1365Sol     HW 8389   0.411   1.329   2.547 -0.1838  1.3761 -0.6661
 1365Sol     MW 8390   0.454   1.279   2.487 -0.2447  0.3001  0.0319
 1366Sol     OW 8391   1.956   1.429   7.344 -0.4483  0.2032 -0.0748
 1366Sol     HW 8392   1.992   1.482   7.273 -0.8664 -0.1680 -0.5658
 1366Sol     HW 8393   2.019   1.358   7.356  0.4719  1.1860  1.0575
 1366Sol     MW 8394   1.965   1.428   7.339 -0.0615  0.1939  0.2085
 1367Sol     OW 8395   0.934   1.436   5.156  0.8345  0.6016  0.3886
 1367Sol     HW 8396   0.899   1.367   5.100  1.8201 -0.1868  0.7246
 1367Sol     HW 8397   1.017   1.460   5.116 -0.6995  3.4934 -1.2301
 1367Sol     MW 8398   0.938   1.432   5.147 -0.6199  0.3170  0.5518
 1368Sol     OW 8399   0.574   2.101   2.684 -0.5883 -0.3940 -0.2099
 1368Sol     HW 8400   0.623   2.019   2.685 -1.4089 -0.8858  0.6322
 1368Sol     HW 8401   0.625   2.160   2.739 -1.2450 -1.1055  1.2000
 1368Sol     MW 8402   0.583   2.099   2.689  0.0527 -0.8772 -0.0798
 1369Sol     OW 8403   2.143   2.583   8.607 -0.3322  0.0978  0.2212
 1369Sol     HW 8404   2.169   2.661   8.557  0.7826  0.4536  1.3405
 1369Sol     HW 8405   2.084   2.617   8.675 -1.1189 -0.2631 -0.2719
 1369Sol     MW 8406   2.140   2.593   8.609  0.2051  0.3306 -0.3250
 1370Sol     OW 8407   1.462   1.360   3.943 -0.1050  0.2691 -0.3439
 1370Sol     HW 8408   1.448   1.431   4.005  1.0166  0.1890  0.0049
 1370Sol     HW 8409   1.377   1.349   3.900 -0.5105  1.2525  0.1881
 1370Sol     MW 8410   1.453   1.365   3.944  0.0641 -0.1859  0.3508
 1371Sol     OW 8411   0.945   1.455   8.683  0.2550  0.3258 -0.2815
 1371Sol     HW 8412   0.972   1.366   8.705 -1.8472  0.0032  1.2015
 1371Sol     HW 8413   0.975   1.468   8.593 -1.3453 -2.7291 -1.3299
 1371Sol     MW 8414   0.950   1.448   8.677 -0.2040 -0.0365  0.1157
 1372Sol     OW 8415   1.827   0.429   9.515  0.0845 -0.3789  0.3205
 1372Sol     HW 8416   1.785   0.515   9.507  0.3673 -0.3135 -0.5672
 1372Sol     HW 8417   1.805   0.385   9.432  2.1582 -0.1697 -0.3732
 1372Sol     MW 8418   1.821   0.433   9.507 -0.4437  0.3001 -0.1505
 1373Sol     OW 8419   1.625   3.193   4.888 -0.2406 -0.0231  0.2774
 1373Sol     HW 8420   1.668   3.259   4.833 -0.3240  0.9658  1.3937
 1373Sol     HW 8421   1.536   3.226   4.899 -0.5011 -0.7052  0.2209
 1373Sol     MW 8422   1.621   3.202   4.884  0.3486  0.2865 -0.2637
 1374Sol     OW 8423   1.639   0.806   5.333  0.5934 -0.4887  0.3545
 1374Sol     HW 8424   1.681   0.862   5.268 -1.0654 -0.5074 -0.7661
 1374Sol     HW 8425   1.605   0.866   5.399  3.7487 -0.5688  2.1457
 1374Sol     MW 8426   1.640   0.816   5.333  0.2695 -0.0640  0.3524
 1375Sol     OW 8427   3.023   1.556   9.016  0.4076 -0.0757 -0.6752
 1375Sol     HW 8428   3.019   1.487   8.949  1.0906 -0.9464  0.1796
 1375Sol     HW 8429   3.015   1.637   8.966 -1.4926 -0.7863 -1.6102
 1375Sol     MW 8430   3.022   1.557   9.005 -0.1347 -0.1941 -0.1350
 1376Sol     OW 8431   2.632   2.128   6.898 -0.2939  0.0392  0.0351
 1376Sol     HW 8432   2.643   2.160   6.987  1.3325 -0.6333  0.0880
 1376Sol     HW 8433   2.627   2.033   6.907 -0.2750 -0.0243 -0.5767
 1376Sol     MW 8434   2.632   2.122   6.907 -0.4690 -0.0958 -0.1068
 1377Sol     OW 8435   3.265   0.436   8.030  0.0710 -0.0941  0.1162
 1377Sol     HW 8436   3.353   0.473   8.018 -0.2538  0.1024 -1.9538
 1377Sol     HW 8437   3.221   0.454   7.947 -2.3340  0.8661  1.5546
 1377Sol     MW 8438   3.269   0.441   8.021 -0.2266  0.5160 -0.4257
 1378Sol     OW 8439   3.115   1.929   2.583 -0.1624  0.2841  0.3604
 1378Sol     HW 8440   3.099   1.899   2.493 -0.4699  2.2550 -0.2676
 1378Sol     HW 8441   3.207   1.954   2.583 -0.5753  1.8302  0.1213
 1378Sol     MW 8442   3.121   1.928   2.575 -0.3799  0.4124  0.1390
 1379Sol     OW 8443   2.649   2.606   2.096 -0.4692 -0.2758 -0.4747
 1379Sol     HW 8444   2.563   2.620   2.135  0.1261  1.1650  0.3523
 1379Sol     HW 8445   2.705   2.579   2.169  0.3958  1.3879 -0.5019
 1379Sol     MW 8446   2.646   2.605   2.106 -0.0840 -0.3255 -0.3452
 1380Sol     OW 8447   2.068   0.310   5.691  0.1630  0.6214  0.1873
 1380Sol     HW 8448   2.090   0.228   5.734 -0.2180  0.1376 -0.5266
 1380Sol     HW 8449   1.992   0.289   5.636 -0.6728  1.7216  0.8826
 1380Sol     MW 8450   2.063   0.301   5.690  0.0549  0.1256  0.4742
 1381Sol     OW 8451   2.125   1.138   4.487 -0.3810 -0.0665  0.7252
 1381Sol     HW 8452   2.057   1.146   4.420 -0.7926  0.4488  1.2086
 1381Sol     HW 8453   2.188   1.206   4.465  0.5493 -1.2557 -0.3803
 1381Sol     MW 8454   2.125   1.145   4.479 -0.4760  0.1213  0.0628
 1382Sol     OW 8455   0.663   1.191   5.558 -0.2433  0.0086  0.2710
 1382Sol     HW 8456   0.743   1.207   5.507 -0.7997  0.4415 -0.4731
 1382Sol     HW 8457   0.684   1.223   5.646  1.0019 -1.4793  0.5400
 1382Sol     MW 8458   0.672   1.196   5.561 -0.0642 -0.1777 -0.0729
 1383Sol     OW 8459   1.535   1.729   2.475 -0.4612 -0.0490 -0.5029
 1383Sol     HW 8460   1.533   1.822   2.454 -0.9683  0.0666  0.0525
 1383Sol     HW 8461   1.594   1.691   2.410 -0.5231  0.6062 -0.9452
 1383Sol     MW 8462   1.540   1.734   2.467  0.1412 -0.1765  0.0158
 1384Sol     OW 8463   0.689   2.169   2.154  0.4512  0.4447 -0.0735
 1384Sol     HW 8464   0.672   2.103   2.087 -0.3307  1.2759 -0.7070
 1384Sol     HW 8465   0.602   2.193   2.187  0.6660  1.6924 -0.3796
 1384Sol     MW 8466   0.680   2.166   2.151  0.1316 -0.4198 -0.1051
 1385Sol     OW 8467   0.897   0.691   5.832  0.7742  0.0775  0.1626
 1385Sol     HW 8468   0.868   0.716   5.744  1.9255 -1.2716 -0.6220
 1385Sol     HW 8469   0.978   0.741   5.845  1.1135 -0.4336  0.0563
 1385Sol     MW 8470   0.902   0.698   5.825  0.0769 -0.4428 -0.7695
 1386Sol     OW 8471   0.384   0.080   3.261  0.4456 -0.1077  0.0721
 1386Sol     HW 8472   0.399   0.108   3.351 -0.2029  0.7532 -0.0811
 1386Sol     HW 8473   0.321   0.008   3.268  0.7512 -0.3475  0.3401
 1386Sol     MW 8474   0.380   0.076   3.270 -0.1955  0.2167  0.6011
 1387Sol     OW 8475   0.171   2.704   7.701 -0.4878 -0.5654  0.4856
 1387Sol     HW 8476   0.256   2.688   7.659 -1.4148  0.0055 -1.6606
 1387Sol     HW 8477   0.143   2.789   7.667 -0.2240  1.0416  4.0743
 1387Sol     MW 8478   0.176   2.710   7.694 -0.1757 -0.0508 -0.5145
 1388Sol     OW 8479   2.000   2.211   1.516 -0.4598 -0.1478  0.2079
 1388Sol     HW 8480   2.010   2.263   1.596 -0.6506 -3.3203  2.3643
 1388Sol     HW 8481   2.083   2.166   1.504 -0.8828 -0.7409 -0.6344
 1388Sol     MW 8482   2.008   2.212   1.522  0.2169  0.3203  0.2140
 1389Sol     OW 8483   1.908   2.125   8.061 -0.9021 -0.4901  0.1407
 1389Sol     HW 8484   1.862   2.051   8.021 -0.0410 -1.2624  0.5575
 1389Sol     HW 8485   1.864   2.202   8.026 -1.6004 -1.1939 -0.5620
 1389Sol     MW 8486   1.900   2.125   8.054 -0.3563 -0.4571 -0.2166
 1390Sol     OW 8487   0.435   1.706   7.362 -0.1161  0.3112  0.5091
 1390Sol     HW 8488   0.481   1.745   7.287 -0.4962  2.7752  1.5013
 1390Sol     HW 8489   0.381   1.637   7.323 -0.4291  1.6393 -1.5440
 1390Sol     MW 8490   0.434   1.704   7.351 -0.1223  0.5538 -0.0395
 1391Sol     OW 8491   2.439   1.278   6.658  0.5349  0.6235 -0.1231
 1391Sol     HW 8492   2.506   1.224   6.699  1.0755  0.4030 -1.2692
 1391Sol     HW 8493   2.423   1.237   6.573  0.1425  1.6104 -0.5415
 1391Sol     MW 8494   2.444   1.270   6.654  0.6084 -0.1083  0.1903
 1392Sol     OW 8495   0.471   2.902   1.587  0.2879 -0.4210  0.2128
 1392Sol     HW 8496   0.464   2.957   1.665 -0.0050 -0.8287  0.4789
 1392Sol     HW 8497   0.382   2.899   1.551  0.9991  2.2787 -1.8928
 1392Sol     MW 8498   0.462   2.906   1.591 -0.2494 -0.0488 -0.4577
 1393Sol     OW 8499   1.919   3.268   9.177 -0.2544 -0.6266 -0.2269
 1393Sol     HW 8500   1.893   3.333   9.242 -0.8141 -0.5115 -0.5669
 1393Sol     HW 8501   1.925   3.317   9.095  1.4659 -0.5626 -0.0757
 1393Sol     MW 8502   1.917   3.278   9.176 -0.2098  0.3038  0.0391
 1394Sol     OW 8503   1.691   2.364   7.310  0.2078 -0.1098  0.1505
 1394Sol     HW 8504   1.781   2.353   7.278 -0.1384 -0.5015 -0.7287
 1394Sol     HW 8505   1.642   2.394   7.233 -0.6826 -1.2308  0.2534
 1394Sol     MW 8506   1.695   2.365   7.300  0.2769 -0.2849 -0.4093
 1395Sol     OW 8507   2.560   3.130   7.923  0.3887  0.4532 -0.0065
 1395Sol     HW 8508   2.500   3.161   7.855  1.2555  0.1537 -0.9138
 1395Sol     HW 8509   2.564   3.202   7.986  0.1372  1.0180 -0.6277
 1395Sol     MW 8510   2.555   3.139   7.922  0.0118  0.2962 -0.2694
 1396Sol     OW 8511   0.481   0.538   8.938  0.4241 -0.1956 -0.1894
 1396Sol     HW 8512   0.494   0.632   8.936  1.1797 -0.2527  1.3354
 1396Sol     HW 8513   0.386   0.526   8.944  0.3862  0.4797  0.5348
 1396Sol     MW 8514   0.474   0.545   8.938  0.0068  0.5099 -0.0654
 1397Sol     OW 8515   1.933   2.173   1.861  0.2622 -0.1265 -0.1438
 1397Sol     HW 8516   2.014   2.223   1.849 -0.1383  0.4025 -0.6727
 1397Sol     HW 8517   1.929   2.156   1.955  1.5270 -1.0795 -0.2572
 1397Sol     MW 8518   1.940   2.176   1.869 -0.5806  0.3371 -0.4843
 1398Sol     OW 8519   2.793   3.216   4.756 -0.3949 -0.0692  0.4564
 1398Sol     HW 8520   2.700   3.227   4.735 -0.3561 -1.2838 -0.4392
 1398Sol     HW 8521   2.835   3.296   4.724 -0.8582 -0.3828 -0.9855
 1398Sol     MW 8522   2.789   3.224   4.751 -0.0167 -0.0133  0.4775
 1399Sol     OW 8523   0.219   0.176   9.803  0.1932  0.4134  0.6723
 1399Sol     HW 8524   0.133   0.188   9.762  0.4616 -0.8851 -0.3017
 1399Sol     HW 8525   0.199   0.145   9.891 -0.3473 -2.7788 -0.5022
 1399Sol     MW 8526   0.210   0.175   9.807  0.2458 -0.2227 -0.4309
 1400Sol     OW 8527   2.089   0.827   2.378 -0.1824 -0.7741 -0.0020
 1400Sol     HW 8528   2.020   0.852   2.316 -0.1728 -0.4121  0.1349
 1400Sol     HW 8529   2.163   0.884   2.356  0.3717 -1.7412 -0.7119
 1400Sol     MW 8530   2.089   0.834   2.370 -0.0402 -0.2001 -0.0323
 1401Sol     OW 8531   2.160   0.291   8.442  0.6428  0.2542 -0.1571
 1401Sol     HW 8532   2.088   0.241   8.481  2.7681 -1.9101  1.1446
 1401Sol     HW 8533   2.129   0.381   8.439 -2.0724 -0.6390  0.4558
 1401Sol     MW 8534   2.151   0.295   8.445 -0.6169 -0.1244 -0.0957
 1402Sol     OW 8535   0.964   1.093   1.816 -0.0769 -0.5758 -0.3170
 1402Sol     HW 8536   1.026   1.021   1.829 -1.1430 -1.3454  0.5844
 1402Sol     HW 8537   0.878   1.050   1.814 -0.6791  0.6214 -0.3039
 1402Sol     MW 8538   0.962   1.083   1.817  0.2051  0.1172  0.3249
 1403Sol     OW 8539   0.152   0.664   9.857 -0.3384  0.0213 -0.2861
 1403Sol     HW 8540   0.134   0.704   9.772 -0.1373  2.2913  0.7045
 1403Sol     HW 8541   0.087   0.702   9.916  0.7639 -0.0528  1.0043
 1403Sol     MW 8542   0.144   0.671   9.855 -0.5760  0.4261 -0.1370
 1404Sol     OW 8543   0.462   0.494   7.001  0.4019  0.2000  0.0608
 1404Sol     HW 8544   0.524   0.516   7.071 -0.8012 -0.1630  1.2439
 1404Sol     HW 8545   0.459   0.399   7.000 -1.7385  0.2338  1.4395
 1404Sol     MW 8546   0.468   0.488   7.007  0.1488  0.0430  0.1384
 1405Sol     OW 8547   0.901   2.616   5.334  0.3017 -0.0529 -0.2797
 1405Sol     HW 8548   0.812   2.584   5.348  0.4486 -0.7783 -0.9851
 1405Sol     HW 8549   0.889   2.706   5.303 -0.2768 -0.8479 -2.4400
 1405Sol     MW 8550   0.892   2.621   5.332 -0.2423  0.2173  0.7820
 1406Sol     OW 8551   1.874   0.889   6.402 -0.0611 -0.1239  0.3940
 1406Sol     HW 8552   1.954   0.842   6.382 -0.0295 -0.4103  1.1736
 1406Sol     HW 8553   1.883   0.972   6.355 -0.4667 -1.1887 -1.6054
 1406Sol     MW 8554   1.882   0.893   6.396  0.2439  0.1632  0.0346
 1407Sol     OW 8555   1.627   1.329   6.329 -0.3386  0.1033 -0.5365
 1407Sol     HW 8556   1.640   1.317   6.423 -0.5338  0.2466 -0.4900
 1407Sol     HW 8557   1.584   1.249   6.300  0.7274 -0.4152 -0.7117
 1407Sol     MW 8558   1.625   1.321   6.335  0.6755  0.5070 -0.5402
 1408Sol     OW 8559   0.930   2.017   7.800 -0.4856  0.5949 -0.0492
 1408Sol     HW 8560   1.004   1.994   7.743  0.7259  0.6916  1.4699
 1408Sol     HW 8561   0.870   2.064   7.743  0.5373  0.3545 -1.3468
 1408Sol     MW 8562   0.931   2.019   7.790  0.1104  0.3190 -0.1733
 1409Sol     OW 8563   3.263   0.742   7.466  0.7323  0.0217  0.1370
 1409Sol     HW 8564   3.170   0.753   7.483  0.3229 -2.0846 -0.5926
 1409Sol     HW 8565   3.297   0.698   7.544  1.1585  0.9541  0.4810
 1409Sol     MW 8566   3.258   0.739   7.474 -0.0918  0.4371 -0.4849
 1410Sol     OW 8567   3.157   3.326   4.302 -0.1501 -0.2474  0.5197
 1410Sol     HW 8568   3.195   3.311   4.215  0.1536  0.9160  0.4379
 1410Sol     HW 8569   3.072   3.366   4.285  0.3769  1.0118  0.7568
 1410Sol     MW 8570   3.153   3.328   4.293  0.1672  0.6303 -0.1354
 1411Sol     OW 8571   1.626   0.653   3.014 -0.4074  0.3346  0.8462
 1411Sol     HW 8572   1.718   0.663   3.036 -0.6073  0.1141  1.7896
 1411Sol     HW 8573   1.581   0.713   3.073 -0.8342  0.7332  0.1176
 1411Sol     MW 8574   1.630   0.659   3.021 -0.0254 -0.0809  0.4113
 1412Sol     OW 8575   2.745   1.445   8.537  0.2609  0.7729 -1.1034
 1412Sol     HW 8576   2.750   1.531   8.577 -0.4146 -0.3877  1.6305
 1412Sol     HW 8577   2.658   1.413   8.560  1.2343 -1.4247 -0.3348
 1412Sol     MW 8578   2.738   1.449   8.543 -0.1236 -0.4628  0.2176
 1413Sol     OW 8579   0.587   0.137   5.363 -1.0175  0.5154 -0.5152
 1413Sol     HW 8580   0.629   0.220   5.383 -2.0262  0.4926  1.9437
 1413Sol     HW 8581   0.523   0.158   5.295 -1.0644  1.6957 -0.1188
 1413Sol     MW 8582   0.585   0.146   5.359  0.4678 -0.1755 -0.7903
 1414Sol     OW 8583   2.300   1.771   5.910 -0.5066  0.0089  0.1304
 1414Sol     HW 8584   2.393   1.783   5.929  0.1454 -2.0052 -1.7166
 1414Sol     HW 8585   2.272   1.856   5.875  0.8959  0.2870 -0.3466
 1414Sol     MW 8586   2.306   1.780   5.909 -0.3286  0.2282  0.2651
 1415Sol     OW 8587   0.266   1.559   3.200 -0.0243 -0.6022  0.3512
 1415Sol     HW 8588   0.346   1.522   3.163  0.6837  0.1524  1.0961
 1415Sol     HW 8589   0.217   1.592   3.124  0.6566 -0.5311 -0.0575
 1415Sol     MW 8590   0.269   1.559   3.190  0.6472 -0.4591 -0.0406
 1416Sol     OW 8591   2.035   0.866   9.599  0.4498 -0.5033 -0.1621
 1416Sol     HW 8592   1.952   0.819   9.603 -0.3911  1.0037  0.4231
 1416Sol     HW 8593   2.088   0.816   9.537 -0.2067 -2.5396  0.9065
 1416Sol     MW 8594   2.032   0.858   9.594  0.5913 -0.0754  0.6619
 1417Sol     OW 8595   0.522   2.420   6.627  0.9346  0.4239  0.0761
 1417Sol     HW 8596   0.525   2.325   6.630 -0.7748  0.3500 -0.2100
 1417Sol     HW 8597   0.601   2.445   6.579 -0.2398 -1.0109 -2.6900
 1417Sol     MW 8598   0.529   2.414   6.623  0.2872 -0.1370  0.2152
 1418Sol     OW 8599   1.915   1.647   8.519 -0.3809 -0.7084  0.3223
 1418Sol     HW 8600   1.944   1.555   8.516  1.1190 -0.2217 -1.0271
 1418Sol     HW 8601   1.969   1.687   8.587 -0.7635 -0.7492  0.6454
 1418Sol     MW 8602   1.923   1.642   8.525  0.0030  0.8723 -0.0113
 1419Sol     OW 8603   2.078   0.089   1.499 -0.5770  0.3530 -0.0567
 1419Sol     HW 8604   2.070  -0.000   1.533  3.7346  0.1831  0.7486
 1419Sol     HW 8605   2.085   0.144   1.577 -0.7484  1.1256 -0.5822
 1419Sol     MW 8606   2.078   0.086   1.509  0.2014 -0.1905  0.4889
 1420Sol     OW 8607   0.998   0.833   3.451 -0.3885 -0.3676  0.5815
 1420Sol     HW 8608   1.066   0.901   3.452  0.0760 -0.8328  0.7060
 1420Sol     HW 8609   0.922   0.876   3.489 -0.8145  0.8141 -1.5618
 1420Sol     MW 8610   0.998   0.843   3.455 -0.1279  0.0010  0.3270
 1421Sol     OW 8611   0.171   2.194   4.048  0.3562 -0.1823 -0.6708
 1421Sol     HW 8612   0.130   2.191   3.962  0.2879 -0.5531 -0.6258
 1421Sol     HW 8613   0.192   2.103   4.068 -0.9943 -0.2700  0.3573
 1421Sol     MW 8614   0.170   2.185   4.042  0.8650 -0.4538 -0.1756
 1422Sol     OW 8615   0.992   0.633   3.244  0.4872 -0.1685 -0.1239
 1422Sol     HW 8616   1.029   0.691   3.178  0.4720 -0.2243 -0.1821
 1422Sol     HW 8617   0.995   0.683   3.325 -0.5335  0.3313 -0.3772
 1422Sol     MW 8618   0.995   0.643   3.245  0.0731  0.4907 -0.1486
 1423Sol     OW 8619   0.767   3.061   7.558 -0.4626 -0.2140 -0.0659
 1423Sol     HW 8620   0.768   3.020   7.472 -0.2116 -0.0625 -0.1366
 1423Sol     HW 8621   0.840   3.123   7.556 -0.6256 -0.0121  0.1587
 1423Sol     MW 8622   0.774   3.063   7.550 -0.3782 -0.3964  0.1279
 1424Sol     OW 8623   1.713   0.431   7.212  0.0618  0.3842 -0.0209
 1424Sol     HW 8624   1.766   0.448   7.134  1.4038  0.9920  0.9820
 1424Sol     HW 8625   1.656   0.508   7.219 -1.2227 -0.4322 -1.3030
 1424Sol     MW 8626   1.713   0.440   7.206 -0.1518  0.0451 -0.4862
 1425Sol     OW 8627   2.209   2.917   3.731 -0.3987 -0.2573 -0.3685
 1425Sol     HW 8628   2.180   2.923   3.822 -0.4481  1.2149 -0.4545
 1425Sol     HW 8629   2.138   2.873   3.686 -1.6777  1.5506 -0.2076
 1425Sol     MW 8630   2.200   2.914   3.735 -0.2318  0.1256  0.3239
 1426Sol     OW 8631   0.999   0.543   8.717 -0.4990  0.3069  0.2571
 1426Sol     HW 8632   1.088   0.525   8.688  0.2246 -1.0578  3.2130
 1426Sol     HW 8633   1.007   0.622   8.771 -0.8846 -0.4748  1.4631
 1426Sol     MW 8634   1.008   0.549   8.719 -0.0924 -0.3167 -0.2207
 1427Sol     OW 8635   1.063   2.490   1.520  0.3704  0.6747  0.0632
 1427Sol     HW 8636   1.005   2.560   1.489 -0.7507  0.2449  1.1572
 1427Sol     HW 8637   1.150   2.517   1.491 -0.5263  0.6684 -2.8081
 1427Sol     MW 8638   1.066   2.499   1.514  0.2022 -0.2771  0.4747
 1428Sol     OW 8639   0.861   1.835   2.270 -0.2196 -0.2911  0.0557
 1428Sol     HW 8640   0.838   1.915   2.317 -0.7213 -0.7073  0.5484
 1428Sol     HW 8641   0.953   1.821   2.289 -0.0092  0.4228 -0.4246
 1428Sol     MW 8642   0.867   1.841   2.276  0.0951 -0.1729  0.3740
 1429Sol     OW 8643   0.530   0.883   9.200  0.2613  0.6376  0.2865
 1429Sol     HW 8644   0.513   0.790   9.218  0.7044  0.2958 -1.0101
 1429Sol     HW 8645   0.444   0.924   9.202  0.0584  0.1985  0.8493
 1429Sol     MW 8646   0.521   0.878   9.202 -0.6343  0.1451  0.0048
 1430Sol     OW 8647   3.076   0.385   2.269 -0.8875 -0.1177 -0.0926
 1430Sol     HW 8648   3.036   0.342   2.194 -0.1521  0.7996 -1.0335
 1430Sol     HW 8649   3.076   0.478   2.246  0.0162  0.0940  0.7104
 1430Sol     MW 8650   3.073   0.390   2.260 -0.0570 -0.2609  0.0426
 1431Sol     OW 8651   2.756   3.213   8.267  0.0385 -0.8230 -0.2448
 1431Sol     HW 8652   2.683   3.246   8.215  0.9396  1.4861 -0.1157
 1431Sol     HW 8653   2.834   3.245   8.221  0.9670 -2.5633  0.0718
 1431Sol     MW 8654   2.757   3.219   8.258  0.4167 -0.2331  0.3767
 1432Sol     OW 8655   0.953   2.563   8.276 -0.0445  0.1896 -0.2602
 1432Sol     HW 8656   0.937   2.530   8.365 -2.2802  0.3245 -0.5646
 1432Sol     HW 8657   0.976   2.485   8.226  0.1412 -0.0632  0.2174
 1432Sol     MW 8658   0.953   2.553   8.280  0.0834  0.3871 -0.2048
 1433Sol     OW 8659   2.889   2.507   8.019  0.2521 -0.0825 -0.1924
 1433Sol     HW 8660   2.969   2.557   8.037  0.5398 -0.5327 -0.2129
 1433Sol     HW 8661   2.819   2.562   8.053  0.6662 -0.2091  0.9122
 1433Sol     MW 8662   2.890   2.516   8.024 -0.2807 -0.0579 -0.5238
 1434Sol     OW 8663   1.886   1.999   5.551 -0.5480 -0.5911 -0.0239
 1434Sol     HW 8664   1.879   1.911   5.515 -2.7775 -0.6274  0.3980
 1434Sol     HW 8665   1.796   2.031   5.552  0.3331  2.0783 -1.1146
 1434Sol     MW 8666   1.877   1.994   5.547  0.6011  0.0364 -0.4026
 1435Sol     OW 8667   1.881   1.766   2.914  0.2827  0.0385 -0.0869
 1435Sol     HW 8668   1.898   1.808   2.999 -0.3003  0.6016 -0.2397
 1435Sol     HW 8669   1.840   1.835   2.862 -0.6439 -0.7083 -0.3567
 1435Sol     MW 8670   1.879   1.776   2.917  0.0137 -0.3700 -0.3110
 1436Sol     OW 8671   0.418   2.800   6.107 -0.1014 -0.2492 -0.2713
 1436Sol     HW 8672   0.429   2.760   6.021  2.6047 -0.1202 -0.0391
 1436Sol     HW 8673   0.487   2.867   6.110 -1.1709  0.7825  1.3925
 1436Sol     MW 8674   0.426   2.803   6.099 -0.8396 -0.1866  0.6060
 1437Sol     OW 8675   1.671   2.162   5.749 -0.1918  0.1571 -0.1116
 1437Sol     HW 8676   1.725   2.235   5.720 -2.2604  2.0873  0.6900
 1437Sol     HW 8677   1.622   2.135   5.672  0.1297  0.0074 -0.2638
 1437Sol     MW 8678   1.671   2.166   5.740 -0.2764  0.0867 -0.3783
 1438Sol     OW 8679   2.191   2.343   4.639 -0.6356 -0.3295  0.1280
 1438Sol     HW 8680   2.276   2.383   4.625 -0.0173 -1.2957  1.0778
 1438Sol     HW 8681   2.158   2.385   4.718 -0.9158 -0.1673 -0.0739
 1438Sol     MW 8682   2.195   2.350   4.645 -0.3764 -0.2630  0.8448
 1439Sol     OW 8683   2.268   1.855   4.102 -0.1883  0.7144 -0.0432
 1439Sol     HW 8684   2.182   1.880   4.066 -1.0412  1.9426  2.7147
 1439Sol     HW 8685   2.331   1.898   4.044 -1.4544  0.3419 -1.7185
 1439Sol     MW 8686   2.266   1.861   4.093 -0.3550 -0.3225  0.0435
 1440Sol     OW 8687   2.744   0.957   7.109  0.5289  0.1608  0.0035
 1440Sol     HW 8688   2.773   0.880   7.060  4.0842  1.1114  0.4547
 1440Sol     HW 8689   2.766   1.031   7.053  1.0331  1.0504  1.3636
 1440Sol     MW 8690   2.749   0.957   7.100  0.2596 -0.5170  0.1990
 1441Sol     OW 8691   2.628   1.338   7.062 -0.3104  0.1189 -0.2351
 1441Sol     HW 8692   2.632   1.343   7.158 -0.9150  0.9459 -0.2512
 1441Sol     HW 8693   2.711   1.297   7.037  1.1142  2.4740  0.4553
 1441Sol     MW 8694   2.636   1.335   7.068 -0.0647 -0.2202  0.1782
 1442Sol     OW 8695   0.516   2.253   8.080 -0.6312  0.4420 -0.0513
 1442Sol     HW 8696   0.473   2.312   8.143 -0.7971 -1.5175  1.7028
 1442Sol     HW 8697   0.598   2.297   8.059 -1.4883  2.1026 -0.0510
 1442Sol     MW 8698   0.519   2.262   8.084  0.3874 -0.4520  0.6006
 1443Sol     OW 8699   1.977   2.444   8.856 -0.3993 -0.2704  0.7448
 1443Sol     HW 8700   1.892   2.470   8.820  0.2018 -1.3660 -1.5255
 1443Sol     HW 8701   1.956   2.374   8.918 -1.0297 -1.6749 -1.0154
 1443Sol     MW 8702   1.967   2.440   8.859  0.5934  0.3416 -0.3905
 1444Sol     OW 8703   2.865   0.363   4.106  0.1195 -0.0604 -0.0830
 1444Sol     HW 8704   2.789   0.419   4.090 -0.2682 -0.5894 -0.0835
 1444Sol     HW 8705   2.829   0.275   4.115  0.6774 -0.2329  0.4748
 1444Sol     MW 8706   2.855   0.360   4.105 -0.2408 -0.1366 -0.3221
 1445Sol     OW 8707   0.079   2.026   8.090 -0.1945 -0.2633 -0.0436
 1445Sol     HW 8708   0.124   1.984   8.163  3.3436  0.7093 -1.5569
 1445Sol     HW 8709   0.055   2.113   8.124  0.3673 -0.2541  0.3458
 1445Sol     MW 8710   0.081   2.030   8.100  0.1759  0.1739  0.7116
 1446Sol     OW 8711   2.091   3.210   2.041  0.6102  0.0876  0.1861
 1446Sol     HW 8712   2.014   3.258   2.008  0.0109 -0.1327  1.2360
 1446Sol     HW 8713   2.132   3.271   2.102  2.6290  1.1053 -2.1374
 1446Sol     MW 8714   2.087   3.220   2.044  0.9870  0.3463  0.1344
 1447Sol     OW 8715   3.239   0.119   8.973  0.1538 -0.1297  0.4180
 1447Sol     HW 8716   3.176   0.144   8.905  0.8745 -1.8044 -0.9144
 1447Sol     HW 8717   3.188   0.123   9.054 -1.1049  0.5774 -0.3789
 1447Sol     MW 8718   3.228   0.121   8.974 -0.0756  0.7448 -0.1155
 1448Sol     OW 8719   0.725   3.108   5.022  0.1725 -0.0525 -0.2493
 1448Sol     HW 8720   0.778   3.127   5.099 -0.0367 -0.9123  0.1134
 1448Sol     HW 8721   0.671   3.186   5.009  1.2045  0.6525 -0.3630
 1448Sol     MW 8722   0.725   3.116   5.027  0.1559  0.2995  0.3984
 1449Sol     OW 8723   2.170   0.827   3.927  0.2578 -0.1270 -0.2366
 1449Sol     HW 8724   2.148   0.871   4.009  0.4508 -1.2398  0.4191
 1449Sol     HW 8725   2.099   0.852   3.867  0.4355  1.1662  0.0911
 1449Sol     MW 8726   2.161   0.833   3.929  0.3461 -0.3756 -0.1443
 1450Sol     OW 8727   2.092   1.289   7.737  0.5140 -0.3249 -0.6156
 1450Sol     HW 8728   2.096   1.230   7.662 -0.5452 -0.2115 -0.7758
 1450Sol     HW 8729   2.081   1.376   7.699  0.4120 -0.2168 -0.3454
 1450Sol     MW 8730   2.091   1.292   7.727  0.3299 -0.0585 -0.1643
 1451Sol     OW 8731   2.772   2.202   9.902  0.4529 -0.1802 -0.3101
 1451Sol     HW 8732   2.784   2.126   9.959 -0.7728 -0.5839 -0.5592
 1451Sol     HW 8733   2.691   2.183   9.855 -0.3546  1.6801  0.2694
 1451Sol     MW 8734   2.765   2.193   9.903 -0.1487  0.0368  0.5484
 1452Sol     OW 8735   2.201   1.950   8.989 -0.5669  0.0510 -0.4614
 1452Sol     HW 8736   2.107   1.931   8.981 -0.2590 -1.4843 -0.6736
 1452Sol     HW 8737   2.219   1.943   9.083 -0.8766  1.4660 -0.2872
 1452Sol     MW 8738   2.194   1.947   8.997  0.6671 -0.3207 -0.2065
 1453Sol     OW 8739   2.320   2.428   6.483  0.4239  0.1175  0.4182
 1453Sol     HW 8740   2.239   2.406   6.438 -0.0099  1.8134  0.3596
 1453Sol     HW 8741   2.311   2.389   6.570  0.0553 -0.7147  0.0059
 1453Sol     MW 8742   2.312   2.423   6.487 -0.1500  0.2480 -0.2933
 1454Sol     OW 8743   0.735   1.962   6.535 -0.4948  0.0075 -0.0864
 1454Sol     HW 8744   0.689   1.924   6.460 -0.3551  2.0900 -1.2378
 1454Sol     HW 8745   0.805   2.014   6.497  0.6358 -0.2746  1.5606
 1454Sol     MW 8746   0.737   1.963   6.525 -0.0086 -0.5795 -0.2515
 1455Sol     OW 8747   0.942   0.330   8.887 -0.0994  0.2895 -0.1494
 1455Sol     HW 8748   0.952   0.262   8.821  0.5809  1.3492 -1.1481
 1455Sol     HW 8749   0.942   0.412   8.838 -0.2344  1.0583  1.1041
 1455Sol     MW 8750   0.943   0.331   8.877 -0.1820 -0.4397 -0.3016
 1456Sol     OW 8751   0.780   1.577   2.229 -0.1326  0.5744 -0.1689
 1456Sol     HW 8752   0.790   1.670   2.250  0.5100  0.6163 -0.6506
 1456Sol     HW 8753   0.826   1.531   2.300  1.0208  0.6837 -0.8208
 1456Sol     MW 8754   0.785   1.581   2.237 -0.2139  0.1764  0.4003
 1457Sol     OW 8755   0.300   1.461   2.627  0.3163  0.0188 -0.1205
 1457Sol     HW 8756   0.264   1.409   2.699  2.0547 -0.3560  0.5007
 1457Sol     HW 8757   0.279   1.552   2.649 -2.3190 -0.3310 -0.9731
 1457Sol     MW 8758   0.295   1.464   2.635 -0.1206 -0.5920  0.4400
 1458Sol     OW 8759   1.349   1.985   6.769  0.5472  0.2708  0.2217
 1458Sol     HW 8760   1.442   1.972   6.755  0.2680 -0.6169 -0.8792
 1458Sol     HW 8761   1.316   2.019   6.686  0.0072  1.1947  0.8114
 1458Sol     MW 8762   1.354   1.987   6.761 -0.3441 -0.0651  0.4884
 1459Sol     OW 8763   0.304   2.427   3.133  0.1308  0.0979  0.2183
 1459Sol     HW 8764   0.234   2.437   3.069  0.9528  2.2765 -0.3890
 1459Sol     HW 8765   0.385   2.431   3.081  0.7866  1.2491  1.2888
 1459Sol     MW 8766   0.305   2.428   3.122 -0.1435 -0.1781  0.1811
 1460Sol     OW 8767   0.934   1.619   9.565  0.1205  0.1106  0.0977
 1460Sol     HW 8768   0.885   1.702   9.563  1.0964  0.6825 -0.3765
 1460Sol     HW 8769   0.957   1.602   9.474 -2.0472 -1.8918 -0.1179
 1460Sol     MW 8770   0.931   1.625   9.557  0.3667  0.0522 -0.5564
 1461Sol     OW 8771   2.254   2.850   6.324  0.3012  0.1983  0.3060
 1461Sol     HW 8772   2.177   2.872   6.376 -0.1290  0.6294 -0.4969
 1461Sol     HW 8773   2.219   2.834   6.236  1.2273  1.2739 -0.2699
 1461Sol     MW 8774   2.244   2.851   6.321 -0.0248  0.2612 -0.2945
 1462Sol     OW 8775   0.443   0.198   6.925  0.2057  0.4311  0.0124
 1462Sol     HW 8776   0.402   0.195   6.839 -0.1420  1.3117  0.1345
 1462Sol     HW 8777   0.527   0.156   6.913  0.6231  1.5194 -1.0306
 1462Sol     MW 8778   0.446   0.194   6.916 -0.7007 -0.3313 -0.2424
 1463Sol     OW 8779   2.231   2.272   8.433 -0.0932 -0.2536 -0.3162
 1463Sol     HW 8780   2.200   2.320   8.510  1.1866  0.6539 -0.3421
 1463Sol     HW 8781   2.296   2.211   8.469 -0.0582 -0.3628 -0.5710
 1463Sol     MW 8782   2.234   2.271   8.443  1.4104 -0.0629  0.3826
 1464Sol     OW 8783   2.222   2.730   5.194  0.4793  0.3457  0.1024
 1464Sol     HW 8784   2.159   2.790   5.235 -0.4314 -0.8246  0.4532
 1464Sol     HW 8785   2.232   2.762   5.105  0.2532  1.2060  0.3813
 1464Sol     MW 8786   2.217   2.738   5.190  0.1216  0.2390 -0.4643
 1465Sol     OW 8787   0.558   2.128   6.659  0.6153  0.2470 -0.2683
 1465Sol     HW 8788   0.628   2.070   6.628 -0.5557 -1.3232 -0.0738
 1465Sol     HW 8789   0.478   2.094   6.618 -0.0692  1.8956 -0.3392
 1465Sol     MW 8790   0.557   2.119   6.653 -0.3890 -0.1485  0.3430
 1466Sol     OW 8791   0.213   1.895   7.535 -0.1113  0.0393 -0.6552
 1466Sol     HW 8792   0.226   1.912   7.442  1.7001  0.6395 -0.3156
 1466Sol     HW 8793   0.160   1.969   7.565  0.7176  0.7423 -0.8849
 1466Sol     MW 8794   0.210   1.903   7.529  0.3364 -0.9609  0.0697
 1467Sol     OW 8795   2.220   0.016   6.838  0.3056 -0.2997 -0.2154
 1467Sol     HW 8796   2.216   0.026   6.933  0.4748 -0.7781 -0.1578
 1467Sol     HW 8797   2.188   0.099   6.804  1.6144  0.4265  0.2659
 1467Sol     MW 8798   2.217   0.024   6.843 -0.3463  0.1517  0.0530
 1468Sol     OW 8799   1.520   0.129   4.157  0.1131  0.6493  0.0240
 1468Sol     HW 8800   1.444   0.099   4.108 -0.0456  0.8151  0.1691
 1468Sol     HW 8801   1.521   0.224   4.146  0.5668  0.6026 -0.3654
 1468Sol     MW 8802   1.513   0.135   4.152 -0.2893  0.0527 -0.4715
 1469Sol     OW 8803   2.228   3.296   5.811 -0.3249 -0.2250 -0.2138
 1469Sol     HW 8804   2.136   3.322   5.809  0.0821  1.3368  0.8673
 1469Sol     HW 8805   2.229   3.214   5.859 -1.3834 -1.2797 -1.9344
 1469Sol     MW 8806   2.220   3.291   5.815  0.6755  0.0486 -0.2727
 1470Sol     OW 8807   0.050   1.281   4.252  0.4286  0.1920 -0.4167
 1470Sol     HW 8808   0.009   1.229   4.320 -0.2088 -1.1917 -1.8254
 1470Sol     HW 8809   0.027   1.372   4.273 -1.6342 -0.4028 -0.0633
 1470Sol     MW 8810   0.045   1.285   4.260  0.2066  0.0303  0.1860
 1471Sol     OW 8811   2.541   2.217   1.922 -0.2238 -0.0325  0.0031
 1471Sol     HW 8812   2.608   2.283   1.906 -1.0635  0.6965 -0.5671
 1471Sol     HW 8813   2.579   2.136   1.887  0.2160  0.4470 -0.6453
 1471Sol     MW 8814   2.550   2.216   1.917 -0.4078 -0.4157 -0.0530
 1472Sol     OW 8815   1.046   0.823   6.171  0.4608 -0.1718 -0.7169
 1472Sol     HW 8816   1.066   0.865   6.087  1.5586 -1.2757 -1.0197
 1472Sol     HW 8817   0.963   0.779   6.156  1.6653 -2.1240 -1.9070
 1472Sol     MW 8818   1.041   0.823   6.162  0.9083  0.0823  0.0876
 1473Sol     OW 8819   3.112   1.445   1.767 -0.1328  0.3363 -0.0247
 1473Sol     HW 8820   3.183   1.389   1.737 -0.9405 -0.3379 -0.6903
 1473Sol     HW 8821   3.145   1.484   1.848  1.1234  0.2906 -0.5026
 1473Sol     MW 8822   3.121   1.444   1.771 -0.0927  0.7373  0.4893
 1474Sol     OW 8823   3.080   1.862   6.442  0.6856 -0.1703  0.4926
 1474Sol     HW 8824   3.063   1.955   6.454 -0.5652 -0.1745 -1.0910
 1474Sol     HW 8825   2.993   1.823   6.431  1.1292 -1.6708  2.0767
 1474Sol     MW 8826   3.071   1.867   6.442  0.5305  0.2221 -0.1961
 1475Sol     OW 8827   0.932   2.183   7.095 -0.4802 -0.6183  0.0643
 1475Sol     HW 8828   1.004   2.188   7.032  0.1151  0.2074  0.8064
 1475Sol     HW 8829   0.926   2.090   7.117  1.9158 -0.4215  1.7726
 1475Sol     MW 8830   0.938   2.175   7.091  0.0491  0.5717 -0.3997
 1476Sol     OW 8831   3.077   3.032   1.987  0.1754 -0.3799 -0.1434
 1476Sol     HW 8832   3.100   3.125   1.982  0.4848 -0.4608 -0.1908
 1476Sol     HW 8833   2.984   3.032   2.012 -0.3006 -0.0275 -1.8564
 1476Sol     MW 8834   3.071   3.041   1.989 -0.2999  0.3416  0.1393
 1477Sol     OW 8835   3.253   2.495   5.272  0.4747  0.2460  0.1908
 1477Sol     HW 8836   3.289   2.571   5.228 -1.1490  1.0815  0.2488
 1477Sol     HW 8837   3.188   2.461   5.211 -0.8584  0.6364  1.3623
 1477Sol     MW 8838   3.250   2.499   5.262  0.0588  0.2579  0.3779
 1478Sol     OW 8839   0.740   2.063   3.615  0.1892 -0.0998 -0.4411
 1478Sol     HW 8840   0.814   2.117   3.588  0.6796  0.1236  1.2416
 1478Sol     HW 8841   0.669   2.089   3.557  0.9179  1.0818 -0.8316
 1478Sol     MW 8842   0.740   2.071   3.608 -0.0523  0.2866  0.0120
 1479Sol     OW 8843   2.528   0.088   3.442  0.0435 -0.2398 -0.0068
 1479Sol     HW 8844   2.435   0.067   3.444  0.4553 -2.1076  0.2770
 1479Sol     HW 8845   2.564   0.047   3.520  1.2270 -0.1336 -0.4797
 1479Sol     MW 8846   2.523   0.083   3.449 -0.0387  0.1767  0.1894
 1480Sol     OW 8847   1.878   0.474   8.269  0.0736  0.2633  0.3136
 1480Sol     HW 8848   1.897   0.529   8.192 -2.7679  3.0117  1.4484
 1480Sol     HW 8849   1.937   0.507   8.337 -1.4843  1.8686  0.9335
 1480Sol     MW 8850   1.885   0.482   8.268 -0.7869 -0.1603 -0.6051
 1481Sol     OW 8851   1.021   3.088   8.483  0.0406  0.3069 -0.1623
 1481Sol     HW 8852   0.985   3.142   8.554  1.6709  1.3563 -0.1105
 1481Sol     HW 8853   1.024   2.999   8.520  0.6950  0.8121  1.0197
 1481Sol     MW 8854   1.018   3.084   8.493 -0.5313 -0.0862  0.0199
 1482Sol     OW 8855   0.048   0.048   2.555 -0.3151  0.1398 -0.4683
 1482Sol     HW 8856   0.066   0.136   2.588  1.0438 -0.0254 -0.7483
 1482Sol     HW 8857  -0.046   0.035   2.572  0.1098  0.5016  2.2420
 1482Sol     MW 8858   0.041   0.055   2.559  0.2212 -0.3919  0.0810
 1483Sol     OW 8859   1.838   2.506   2.200 -0.2296 -0.4144  0.1764
 1483Sol     HW 8860   1.830   2.536   2.109 -0.9108  0.1410  0.4165
 1483Sol     HW 8861   1.838   2.411   2.193 -1.4455 -0.3865 -0.3175
 1483Sol     MW 8862   1.837   2.500   2.191  0.6605  0.2000 -0.1865
 1484Sol     OW 8863   2.667   1.171   3.709  0.4507 -0.2349  0.2122
 1484Sol     HW 8864   2.708   1.246   3.665 -1.3755 -0.1794 -1.4942
 1484Sol     HW 8865   2.580   1.202   3.734 -0.0705 -1.5502  0.1060
 1484Sol     MW 8866   2.663   1.180   3.707  0.3848  0.1460  0.4619
 1485Sol     OW 8867   2.941   1.053   6.784 -0.0320  0.2401 -0.3960
 1485Sol     HW 8868   2.900   1.052   6.697  0.3549 -1.5482 -0.5775
 1485Sol     HW 8869   3.017   1.110   6.774  2.0480 -2.6639 -2.2372
 1485Sol     MW 8870   2.944   1.058   6.775  0.0899  0.3482  0.2081
 1486Sol     OW 8871   1.613   0.775   4.951  0.0271  0.0384 -0.2135
 1486Sol     HW 8872   1.525   0.801   4.922  0.5621  0.4678 -1.4572
 1486Sol     HW 8873   1.653   0.856   4.980  0.0202 -0.1596  0.3530
 1486Sol     MW 8874   1.609   0.784   4.951 -0.5219 -0.1719  0.3633
 1487Sol     OW 8875   1.799   2.080   9.497  0.0555 -0.5765 -0.4098
 1487Sol     HW 8876   1.804   2.175   9.504  1.3159 -0.5651 -1.4274
 1487Sol     HW 8877   1.727   2.064   9.435 -1.1092 -0.3382  0.8527
 1487Sol     MW 8878   1.793   2.087   9.492 -0.1702  0.6114  0.1283
 1488Sol     OW 8879   3.172   0.226   8.157 -0.7977  0.0318  0.2793
 1488Sol     HW 8880   3.089   0.199   8.117 -0.6171  0.3296 -0.3060
 1488Sol     HW 8881   3.201   0.300   8.104 -0.8627  0.8362  1.3544
 1488Sol     MW 8882   3.167   0.230   8.149  0.1701  0.3115 -0.4892
 1489Sol     OW 8883   2.047   2.421   8.251  0.7166  0.4297  0.4132
 1489Sol     HW 8884   2.116   2.378   8.302  1.9369  0.7575 -0.9431
 1489Sol     HW 8885   2.028   2.360   8.180 -1.8182 -0.5648  1.8846
 1489Sol     MW 8886   2.051   2.412   8.250  0.1435  0.2410  0.3636
 1490Sol     OW 8887   3.298   1.719   9.380 -0.1289 -0.6311  0.4289
 1490Sol     HW 8888   3.277   1.639   9.331 -1.1046 -1.0588  1.5089
 1490Sol     HW 8889   3.393   1.723   9.380 -0.0936 -1.2283 -0.5332
 1490Sol     MW 8890   3.304   1.712   9.376  0.0531 -0.2128 -0.0187
 1491Sol     OW 8891   3.280   2.946   7.335  0.6062 -0.4501  0.7622
 1491Sol     HW 8892   3.270   2.926   7.242  0.8571 -2.5204  1.1707
 1491Sol     HW 8893   3.253   3.038   7.342  2.1172  0.2257 -1.5968
 1491Sol     MW 8894   3.276   2.953   7.327 -0.1850 -0.1285  0.0341
 1492Sol     OW 8895   1.661   0.988   7.479 -0.0858  0.3438  0.5140
 1492Sol     HW 8896   1.662   0.896   7.505 -1.2352  0.3632  0.6643
 1492Sol     HW 8897   1.734   0.996   7.417 -0.5449 -0.8851 -0.2169
 1492Sol     MW 8898   1.668   0.980   7.476 -0.0328  0.1480 -0.4451
 1493Sol     OW 8899   2.640   1.821   2.418  0.1885  0.0682 -0.2736
 1493Sol     HW 8900   2.693   1.831   2.496  0.9669 -0.7160 -0.7014
 1493Sol     HW 8901   2.607   1.909   2.400  2.0056  0.7186 -0.4772
 1493Sol     MW 8902   2.642   1.830   2.423  0.2732  0.5040  0.1293
 1494Sol     OW 8903   0.012   0.566   8.503  0.2400  0.2359 -0.4716
 1494Sol     HW 8904  -0.042   0.540   8.428 -2.5535  0.5689  1.3278
 1494Sol     HW 8905   0.094   0.596   8.464 -1.6569  1.7761 -3.5485
 1494Sol     MW 8906   0.014   0.567   8.493 -0.3252 -0.1627 -0.1053
 1495Sol     OW 8907   2.300   2.952   2.974 -0.2642  0.2272  0.3161
 1495Sol     HW 8908   2.346   2.871   2.997  0.2059 -0.0791 -1.6387
 1495Sol     HW 8909   2.259   2.981   3.056  2.0918 -0.3554  1.7414
 1495Sol     MW 8910   2.301   2.948   2.983 -0.1754  0.2107 -0.2193
 1496Sol     OW 8911   2.705   0.783   2.241 -0.4920 -0.0052  0.0990
 1496Sol     HW 8912   2.739   0.862   2.199  0.8882 -0.4762  0.3053
 1496Sol     HW 8913   2.729   0.712   2.181  2.7293 -0.8655  2.2569
 1496Sol     MW 8914   2.710   0.784   2.232 -0.6163 -0.0773 -0.3836
 1497Sol     OW 8915   2.537   2.315   2.896  0.0424 -0.0774 -0.0449
 1497Sol     HW 8916   2.555   2.232   2.852  1.1430  0.2796 -0.2708
 1497Sol     HW 8917   2.473   2.358   2.839 -0.0561 -0.4871 -0.2523
 1497Sol     MW 8918   2.533   2.311   2.887 -0.1234  0.5946 -0.1801
 1498Sol     OW 8919   2.244   3.216   4.287  0.0833  0.2639  0.0152
 1498Sol     HW 8920   2.270   3.124   4.298 -2.3850 -0.4701 -0.0307
 1498Sol     HW 8921   2.246   3.251   4.376  0.1985 -0.0613  0.1452
 1498Sol     MW 8922   2.247   3.211   4.296  0.2385  0.5131 -0.7605
 1499Sol     OW 8923   3.118   1.950   4.015 -0.2116 -0.0295  0.6857
 1499Sol     HW 8924   3.112   1.898   4.095 -0.6305  0.9176  1.2835
 1499Sol     HW 8925   3.129   1.886   3.945  1.3511 -0.8210  1.6144
 1499Sol     MW 8926   3.119   1.939   4.016 -0.4466  0.4462 -0.6624
 1500Sol     OW 8927   2.240   0.671   8.906  0.4096  0.1150 -0.1509
 1500Sol     HW 8928   2.297   0.628   8.842 -1.1101 -0.7450 -0.9842
 1500Sol     HW 8929   2.249   0.619   8.985  0.0980 -0.5831 -0.5620
 1500Sol     MW 8930   2.246   0.663   8.907 -0.1390  0.1853 -0.2681
 1501Sol     OW 8931   0.067   2.537   8.187  0.5307 -0.3082  0.1135
 1501Sol     HW 8932  -0.016   2.548   8.234  0.4401  1.2998 -0.4102
 1501Sol     HW 8933   0.129   2.590   8.237  1.1714 -1.2055  0.2824
 1501Sol     MW 8934   0.065   2.542   8.196 -0.5681 -0.7697  0.1310
 1502Sol     OW 8935   2.283   3.359   2.698 -0.8195 -0.1908 -0.3386
 1502Sol     HW 8936   2.199   3.402   2.714 -1.1089 -0.5781 -0.8299
 1502Sol     HW 8937   2.279   3.278   2.750 -0.7193 -0.1744 -0.3048
 1502Sol     MW 8938   2.275   3.355   2.704  0.2741 -0.4953 -0.0150
 1503Sol     OW 8939   1.339   2.295   4.109 -0.0258 -0.0084 -0.1523
 1503Sol     HW 8940   1.347   2.260   4.197  0.4165  1.5630  0.4523
 1503Sol     HW 8941   1.428   2.321   4.085 -0.2829  0.3946 -0.6999
 1503Sol     MW 8942   1.348   2.294   4.114 -0.2896  0.1918 -0.1475
 1504Sol     OW 8943   0.377   3.029   3.448  0.4177 -0.0466 -0.8772
 1504Sol     HW 8944   0.418   3.113   3.427 -3.0038  1.5073 -1.6477
 1504Sol     HW 8945   0.333   3.044   3.531 -0.1733 -1.1069 -0.9895
 1504Sol     MW 8946   0.377   3.038   3.454 -0.0893 -0.0832 -0.2924
 1505Sol     OW 8947   1.594   2.473   9.921 -0.2087  0.1939  0.7597
 1505Sol     HW 8948   1.613   2.551   9.973  2.4088 -0.5689  1.0433
 1505Sol     HW 8949   1.679   2.448   9.884 -1.1100 -2.1422  0.1702
 1505Sol     MW 8950   1.603   2.478   9.923  0.3202 -0.0560 -0.3070
 1506Sol     OW 8951   2.796   1.150   6.075  0.6090  0.1522 -0.0543
 1506Sol     HW 8952   2.845   1.197   6.008 -0.1447 -2.8476 -2.8360
 1506Sol     HW 8953   2.704   1.168   6.054  0.3237 -2.1995 -0.9561
 1506Sol     MW 8954   2.792   1.156   6.067 -0.0511 -0.1177  0.1667
 1507Sol     OW 8955   1.212   1.660   3.805  0.1410  0.1085 -0.3268
 1507Sol     HW 8956   1.174   1.746   3.787  0.2479 -0.0449 -1.2839
 1507Sol     HW 8957   1.255   1.670   3.890  1.0257  1.2836 -0.9047
 1507Sol     MW 8958   1.212   1.668   3.811 -0.0490  0.7847  0.0887
 1508Sol     OW 8959   1.174   1.193   4.181  0.0314 -0.0554 -0.1202
 1508Sol     HW 8960   1.099   1.143   4.212 -0.3887 -0.1644 -1.2963
 1508Sol     HW 8961   1.204   1.242   4.257 -2.2267  1.2350 -0.0398
 1508Sol     MW 8962   1.170   1.193   4.190 -0.4303  0.5612  0.5923
 1509Sol     OW 8963   1.699   0.885   8.358 -0.4187 -0.2345  0.3920
 1509Sol     HW 8964   1.718   0.875   8.265 -0.6891  4.0450 -0.2290
 1509Sol     HW 8965   1.784   0.877   8.401  0.4818  2.5946 -0.7577
 1509Sol     MW 8966   1.708   0.883   8.354  0.3420  0.5015  0.4116
 1510Sol     OW 8967   0.602   2.690   3.613 -0.1295 -0.3214 -0.1017
 1510Sol     HW 8968   0.698   2.691   3.606  0.1091 -1.7935  2.4150
 1510Sol     HW 8969   0.575   2.617   3.558  0.0542  0.9653 -1.9446
 1510Sol     MW 8970   0.608   2.684   3.607  0.3273 -0.3617 -0.7168
 1511Sol     OW 8971   1.014   3.341   8.059  0.2893  0.3068 -0.0148
 1511Sol     HW 8972   0.990   3.395   7.983  0.3802  0.6795  0.2192
 1511Sol     HW 8973   0.971   3.383   8.133 -2.0515 -1.6037 -0.2211
 1511Sol     MW 8974   1.008   3.350   8.059 -0.2294  0.1201  0.6095
 1512Sol     OW 8975   0.982   2.394   9.223  0.0141 -0.4549  0.3020
 1512Sol     HW 8976   0.953   2.457   9.289 -2.0199 -1.0078 -0.0108
 1512Sol     HW 8977   1.071   2.370   9.250  0.1747  1.2639  1.3681
 1512Sol     MW 8978   0.987   2.397   9.231 -0.0042  0.0796 -0.3332
 1513Sol     OW 8979   0.846   1.573   3.893  0.1012  0.2678 -0.2900
 1513Sol     HW 8980   0.869   1.511   3.824  0.6651  0.6381 -0.4400
 1513Sol     HW 8981   0.905   1.550   3.965 -0.1611  0.1873 -0.1034
 1513Sol     MW 8982   0.854   1.565   3.893 -0.0633  0.2280  0.1495
 1514Sol     OW 8983   1.758   2.775   7.961 -0.2140 -0.3592  0.3865
 1514Sol     HW 8984   1.750   2.742   7.872  1.1529 -0.8046  0.4216
 1514Sol     HW 8985   1.675   2.821   7.977 -0.5200 -0.3852 -1.0573
 1514Sol     MW 8986   1.750   2.776   7.955 -0.1398 -0.5610  0.4925
 1515Sol     OW 8987   2.859   0.850   1.964  0.9395 -0.1177 -0.2270
 1515Sol     HW 8988   2.906   0.773   1.993  0.4090 -0.0666  0.7844
 1515Sol     HW 8989   2.875   0.916   2.031 -0.0997  0.0790 -0.1500
 1515Sol     MW 8990   2.864   0.849   1.972  0.1223 -0.2395 -0.4226
 1516Sol     OW 8991   1.755   2.069   7.499  0.0774  0.1800  0.0097
 1516Sol     HW 8992   1.719   2.089   7.585  0.8993 -0.2692  0.4564
 1516Sol     HW 8993   1.830   2.127   7.490  2.4084 -2.5713  1.2620
 1516Sol     MW 8994   1.758   2.076   7.506 -0.0206  0.1859  0.0079
 1517Sol     OW 8995   2.450   0.770   4.337  0.0085 -0.2559 -0.7848
 1517Sol     HW 8996   2.361   0.765   4.371 -0.0907 -1.0956 -1.1628
 1517Sol     HW 8997   2.454   0.703   4.269  0.9120 -0.1809 -0.8127
 1517Sol     MW 8998   2.443   0.764   4.334  0.2707  0.4629 -0.1911
 1518Sol     OW 8999   0.882   1.164   8.331 -0.1844  0.4752  0.0025
 1518Sol     HW 9000   0.944   1.188   8.399 -0.0553 -0.9648  0.4187
 1518Sol     HW 9001   0.889   1.234   8.266  0.3293  1.4077  1.0461
 1518Sol     MW 9002   0.888   1.172   8.331 -0.4244 -0.2972 -0.0328
 1519Sol     OW 9003   3.310   1.926   4.521 -0.7072  0.1872  0.8064
 1519Sol     HW 9004   3.365   1.954   4.448 -0.6498  0.1387  0.8316
 1519Sol     HW 9005   3.328   1.832   4.529 -1.2667  0.0374  0.3978
 1519Sol     MW 9006   3.316   1.920   4.515 -0.6970 -0.7703  0.3242
 1520Sol     OW 9007   1.525   2.861   9.631  0.3271 -0.1144 -0.5568
 1520Sol     HW 9008   1.585   2.913   9.684  1.6031 -1.3169 -0.8077
 1520Sol     HW 9009   1.572   2.843   9.550 -0.5029 -0.7473 -0.9168
 1520Sol     MW 9010   1.534   2.864   9.629  0.4742 -0.6167  0.3208
 1521Sol     OW 9011   1.013   2.759   4.601  0.4767 -0.6169 -0.0708
 1521Sol     HW 9012   1.035   2.723   4.687 -0.9092 -1.0690  0.1082
 1521Sol     HW 9013   1.096   2.760   4.554  0.9671 -1.8537  0.7278
 1521Sol     MW 9014   1.023   2.756   4.605 -0.0550 -0.2152  0.5247
 1522Sol     OW 9015   0.654   0.875   3.138  0.0640 -0.1326 -0.0993
 1522Sol     HW 9016   0.667   0.868   3.043 -0.6141 -2.4464 -0.0429
 1522Sol     HW 9017   0.558   0.878   3.149  0.1177 -0.7831  0.5643
 1522Sol     MW 9018   0.646   0.874   3.130 -0.4449 -0.8215  0.1504
 1523Sol     OW 9019   1.278   2.521   5.795 -0.2560  0.0300 -0.5256
 1523Sol     HW 9020   1.191   2.555   5.817 -0.7565 -0.0210 -2.3714
 1523Sol     HW 9021   1.283   2.437   5.840 -0.5396  0.7470  0.8708
 1523Sol     MW 9022   1.270   2.517   5.801  0.0099  0.8920 -0.0213
 1524Sol     OW 9023   2.425   1.172   9.395 -0.4083  0.0588  0.3250
 1524Sol     HW 9024   2.502   1.137   9.349 -0.1203  2.7865 -1.4164
 1524Sol     HW 9025   2.352   1.122   9.360  0.3187 -0.9421  0.2179
 1524Sol     MW 9026   2.426   1.164   9.387  0.3547 -0.1517 -0.4812
 1525Sol     OW 9027   0.156   1.239   8.232  0.4911  0.6108 -0.3736
 1525Sol     HW 9028   0.112   1.324   8.236  0.8529  0.7619  0.4695
 1525Sol     HW 9029   0.177   1.227   8.139 -2.2363  0.0680 -0.9642
 1525Sol     MW 9030   0.154   1.246   8.224 -0.2650 -0.2930 -0.7685
 1526Sol     OW 9031   0.351   1.253   6.090 -0.0372 -0.3255  0.5409
 1526Sol     HW 9032   0.380   1.305   6.015  1.0707 -1.4342  0.1848
 1526Sol     HW 9033   0.427   1.253   6.149 -1.3800  1.7840  2.3792
 1526Sol     MW 9034   0.360   1.258   6.089 -0.5027 -0.3169 -0.6322
 1527Sol     OW 9035   1.057   1.498   5.519  0.5367  0.3354  0.0364
 1527Sol     HW 9036   1.005   1.451   5.585  0.9344  0.1792  0.2415
 1527Sol     HW 9037   1.126   1.541   5.570  1.1234 -0.1697 -0.3328
 1527Sol     MW 9038   1.059   1.498   5.530  0.4229 -0.6910  0.0723
 1528Sol     OW 9039   1.146   0.504   7.188 -0.0771  0.1059 -0.4497
 1528Sol     HW 9040   1.144   0.410   7.208  0.9138  0.1805  0.0568
 1528Sol     HW 9041   1.186   0.509   7.101  0.2363  0.0727 -0.3103
 1528Sol     MW 9042   1.149   0.496   7.182 -1.1589  0.5921 -0.3426
 1529Sol     OW 9043   0.193   0.718   4.816  0.2535 -0.3288 -0.0484
 1529Sol     HW 9044   0.276   0.748   4.780 -0.0827 -1.2681 -1.6690
 1529Sol     HW 9045   0.208   0.628   4.842  0.3918  0.2349  1.9014
 1529Sol     MW 9046   0.202   0.713   4.815  0.3402  0.4503  0.2308
 1530Sol     OW 9047   3.183   2.343   3.405 -0.4695 -0.3336  0.3754
 1530Sol     HW 9048   3.227   2.322   3.323 -0.2694  0.0033  0.3974
 1530Sol     HW 9049   3.240   2.407   3.448 -0.6520 -0.3903  0.7028
 1530Sol     MW 9050   3.192   2.347   3.402 -0.1457 -0.6031  0.3068
 1531Sol     OW 9051   2.957   0.809   6.623 -0.4188 -0.1094  0.0639
 1531Sol     HW 9052   2.961   0.878   6.690 -2.2985  1.7378 -1.6812
 1531Sol     HW 9053   3.023   0.745   6.652  0.6958  1.9221  2.2441
 1531Sol     MW 9054   2.963   0.809   6.632 -0.0770 -0.0501  0.5176
 1532Sol     OW 9055   0.529   1.431   5.523  0.1438 -0.3790  0.2180
 1532Sol     HW 9056   0.574   1.347   5.534 -0.1513 -0.6817 -0.8965
 1532Sol     HW 9057   0.437   1.407   5.509  0.3813  0.0358 -2.1186
 1532Sol     MW 9058   0.525   1.421   5.523  0.2117  0.2503 -0.2608
 1533Sol     OW 9059   1.089   1.390   4.819  0.0115  0.2758  0.2442
 1533Sol     HW 9060   1.141   1.311   4.801 -0.2492  0.4793 -1.4471
 1533Sol     HW 9061   1.144   1.441   4.879  1.3235  0.0043 -0.7040
 1533Sol     MW 9062   1.099   1.388   4.823 -0.0268 -0.1145  0.0695
 1534Sol     OW 9063   1.594   1.307   1.999  0.0426  1.0085  0.2577
 1534Sol     HW 9064   1.664   1.297   2.063 -0.0628 -0.4962  0.1475
 1534Sol     HW 9065   1.573   1.401   2.001  2.3223  1.5455 -0.0127
 1534Sol     MW 9066   1.598   1.315   2.005  0.2734  0.0149 -0.3550
 1535Sol     OW 9067   0.213   0.554   8.027 -0.5652 -0.4278 -0.9425
 1535Sol     HW 9068   0.186   0.634   8.072  0.4110  1.0218 -2.9040
 1535Sol     HW 9069   0.264   0.584   7.952  0.3557 -2.9077 -1.3572
 1535Sol     MW 9070   0.215   0.564   8.025  0.1938 -0.6392 -0.2352
 1536Sol     OW 9071   1.580   0.568   8.131 -0.7709  0.0736 -0.1735
 1536Sol     HW 9072   1.587   0.546   8.224  0.2931 -0.2018 -0.3160
 1536Sol     HW 9073   1.624   0.496   8.086  0.0853  0.9814 -0.8049
 1536Sol     MW 9074   1.585   0.560   8.135 -0.0267 -0.1005 -0.9482
 1537Sol     OW 9075   2.015   2.820   6.829  0.8575 -0.4618  0.3825
 1537Sol     HW 9076   2.005   2.725   6.824 -0.7170 -0.3409  0.8561
 1537Sol     HW 9077   2.079   2.841   6.761  0.6240 -1.7823 -0.2654
 1537Sol     MW 9078   2.020   2.813   6.822  0.3271 -0.7942 -0.7380
 1538Sol     OW 9079   3.281   2.360   9.266  0.1410 -0.2689 -0.3147
 1538Sol     HW 9080   3.215   2.304   9.306 -1.2560  1.5850  0.0389
 1538Sol     HW 9081   3.234   2.409   9.199  1.6419 -0.5436 -1.5936
 1538Sol     MW 9082   3.271   2.360   9.264 -0.4295  0.7260 -0.0504
 1539Sol     OW 9083   2.283   3.332   4.558 -0.4477  0.2888  0.2572
 1539Sol     HW 9084   2.200   3.309   4.600 -0.3664  1.1663  0.9013
 1539Sol     HW 9085   2.350   3.292   4.613 -0.4462 -0.5424 -0.3433
 1539Sol     MW 9086   2.282   3.327   4.567 -0.1505 -0.5180 -0.1943
 1540Sol     OW 9087   1.432   0.179   5.293 -0.1486  0.0016  0.2911
 1540Sol     HW 9088   1.482   0.225   5.360  2.5177 -2.2027 -0.0894
 1540Sol     HW 9089   1.407   0.096   5.333  0.2371 -0.7368 -0.9513
 1540Sol     MW 9090   1.434   0.176   5.302 -0.0201  0.4068  0.5412
 1541Sol     OW 9091   3.118   0.987   8.670  0.3179  0.6321 -0.3316
 1541Sol     HW 9092   3.062   1.057   8.636 -3.0460 -0.8052  2.0030
 1541Sol     HW 9093   3.136   0.931   8.595 -1.2005  1.2688 -1.1839
 1541Sol     MW 9094   3.115   0.988   8.660 -0.6424  0.3674 -0.0175
 1542Sol     OW 9095   1.611   0.131   5.078  0.1078 -0.1629 -0.4894
 1542Sol     HW 9096   1.662   0.072   5.133 -0.6002 -1.8661 -1.6373
 1542Sol     HW 9097   1.544   0.167   5.137  1.7675  1.0594  0.6907
 1542Sol     MW 9098   1.610   0.129   5.089 -0.3643  0.5405 -0.4535
 1543Sol     OW 9099   2.136   2.095   2.988  0.4449 -0.4736 -0.5895
 1543Sol     HW 9100   2.104   2.023   3.043  0.6455  0.1568  0.3625
 1543Sol     HW 9101   2.179   2.051   2.914 -1.8447 -1.3444 -1.4719
 1543Sol     MW 9102   2.137   2.084   2.986  0.0161  0.5709 -0.1500
 1544Sol     OW 9103   0.830   0.946   9.078 -0.0396  0.8143  0.1346
 1544Sol     HW 9104   0.882   0.995   9.142 -0.5829 -0.8175  1.8812
 1544Sol     HW 9105   0.739   0.960   9.105 -0.2424 -0.4384  0.1328
 1544Sol     MW 9106   0.826   0.952   9.086 -0.0803 -0.1369 -0.1127
 1545Sol     OW 9107   0.399   1.648   3.755  0.2008  0.3537  0.3742
 1545Sol     HW 9108   0.477   1.633   3.702 -0.0519  1.1328 -0.2386
 1545Sol     HW 9109   0.397   1.575   3.817 -0.6870 -1.8780 -2.1385
 1545Sol     MW 9110   0.405   1.640   3.756 -0.0539  0.4390 -0.5788
 1546Sol     OW 9111   2.791   1.214   2.509  0.3541  0.7121  0.3592
 1546Sol     HW 9112   2.773   1.299   2.551 -0.5605  1.1964 -0.9895
 1546Sol     HW 9113   2.844   1.236   2.433 -1.8924  0.3636 -1.3722
 1546Sol     MW 9114   2.794   1.224   2.506 -0.0611  0.0039 -0.5561
 1547Sol     OW 9115   2.407   2.637   6.022  0.0898 -0.4253 -0.2663
 1547Sol     HW 9116   2.420   2.608   5.931 -0.1660 -2.0399  0.2060
 1547Sol     HW 9117   2.331   2.696   6.017  0.4899  0.0331 -1.1978
 1547Sol     MW 9118   2.401   2.640   6.013 -0.2142  0.7813  0.4071
 1548Sol     OW 9119   0.566   2.902   7.767  0.3490  0.3562 -0.3543
 1548Sol     HW 9120   0.588   2.883   7.858 -1.3358 -2.2583 -0.4424
 1548Sol     HW 9121   0.648   2.935   7.729  1.7101 -0.8196  1.4899
 1548Sol     MW 9122   0.575   2.903   7.772  0.3892  0.3542 -0.2697
 1549Sol     OW 9123   2.127   1.496   8.890 -0.2906 -0.5637  0.1904
 1549Sol     HW 9124   2.062   1.438   8.850 -1.0207  0.3163  0.0845
 1549Sol     HW 9125   2.104   1.498   8.983 -1.1153  0.6187 -0.0214
 1549Sol     MW 9126   2.119   1.491   8.895  0.5870 -0.1203 -0.0130
 1550Sol     OW 9127   1.168   1.424   3.536  0.4868 -0.2166 -0.5213
 1550Sol     HW 9128   1.224   1.407   3.612  1.1163 -1.6159 -1.2591
 1550Sol     HW 9129   1.230   1.437   3.464 -0.1193 -0.8028 -1.1555
 1550Sol     MW 9130   1.179   1.423   3.536 -0.3772 -0.2531 -0.7643
 1551Sol     OW 9131   2.967   2.544   4.309  0.2415  0.5961  0.5907
 1551Sol     HW 9132   3.057   2.554   4.276 -0.0238 -0.5379 -0.5279
 1551Sol     HW 9133   2.978   2.507   4.397  0.8987  1.6389  0.9539
 1551Sol     MW 9134   2.976   2.541   4.314  0.5248 -0.2048 -0.7239
 1552Sol     OW 9135   2.546   0.157   8.105 -0.3025 -0.0125  0.2238
 1552Sol     HW 9136   2.587   0.240   8.080 -1.1392 -0.1609 -1.7065
 1552Sol     HW 9137   2.454   0.179   8.118 -0.2102 -0.3112  1.4093
 1552Sol     MW 9138   2.541   0.167   8.104  0.1397  0.0763  0.1567
 1553Sol     OW 9139   1.744   0.538   5.058 -0.4158 -0.2856 -0.0253
 1553Sol     HW 9140   1.729   0.520   5.151  1.1142  0.4741  0.3965
 1553Sol     HW 9141   1.688   0.613   5.038 -1.2822 -0.8942  0.0916
 1553Sol     MW 9142   1.738   0.543   5.065  0.0089  0.5560 -0.3037
 1554Sol     OW 9143   2.515   0.716   1.375 -0.6226  0.1875  0.1334
 1554Sol     HW 9144   2.556   0.639   1.335  0.0210  0.7848 -0.3717
 1554Sol     HW 9145   2.446   0.742   1.314  0.2293  0.9802 -0.5023
 1554Sol     MW 9146   2.512   0.712   1.366  0.0145  0.3405  0.3735
 1555Sol     OW 9147   2.421   1.681   9.677  0.2222  0.2628 -0.4400
 1555Sol     HW 9148   2.405   1.704   9.585 -0.7443 -1.8782 -0.8309
 1555Sol     HW 9149   2.374   1.748   9.726  0.8209  1.4848 -1.5048
 1555Sol     MW 9150   2.415   1.689   9.673 -0.5979  0.3518 -0.3595
 1556Sol     OW 9151   3.053   1.006   5.030  0.2211 -0.4444  0.2132
 1556Sol     HW 9152   3.065   1.031   4.939  2.5684 -0.9450  0.3500
 1556Sol     HW 9153   3.142   0.993   5.063 -0.5700  0.0577  2.6579
 1556Sol     MW 9154   3.062   1.007   5.025  0.3926  0.3252 -0.7384
 1557Sol     OW 9155   1.217   0.022   6.724 -0.1635  0.1056 -0.0039
 1557Sol     HW 9156   1.203   0.077   6.802 -2.2823 -1.1826  0.5635
 1557Sol     HW 9157   1.130  -0.007   6.699  0.4206  0.9363 -3.2489
 1557Sol     MW 9158   1.208   0.025   6.729 -0.3575  0.1527 -0.2731
 1558Sol     OW 9159   2.266   2.156   2.501 -0.1101 -0.0965 -0.4589
 1558Sol     HW 9160   2.199   2.191   2.443  0.4405 -0.3985 -1.3036
 1558Sol     HW 9161   2.339   2.217   2.493 -0.4864  0.5301  0.8798
 1558Sol     MW 9162   2.267   2.164   2.495  0.1906  0.5602 -0.0123
 1559Sol     OW 9163   2.601   1.383   8.112 -0.8456  0.0532 -1.0047
 1559Sol     HW 9164   2.665   1.445   8.148  1.0849  0.1664 -4.3935
 1559Sol     HW 9165   2.526   1.437   8.087 -0.7762  0.4523 -0.3617
 1559Sol     MW 9166   2.600   1.393   8.113  0.0354  0.0520  0.4635
 1560Sol     OW 9167   0.614   3.151   4.082  0.7217 -0.0044  0.0785
 1560Sol     HW 9168   0.595   3.194   3.999 -1.2897  1.8275  1.4206
 1560Sol     HW 9169   0.599   3.058   4.065 -1.1029  0.5039 -1.2286
 1560Sol     MW 9170   0.611   3.147   4.073  0.3647  0.4008  0.5476
 1561Sol     OW 9171   0.076   1.823   3.084  0.3490 -0.0168 -0.3516
 1561Sol     HW 9172  -0.001   1.825   3.140 -0.4895 -1.0730 -1.4516
 1561Sol     HW 9173   0.145   1.864   3.137 -0.3740 -1.1542  1.5252
 1561Sol     MW 9174   0.075   1.827   3.094 -0.2177 -0.1656 -0.0339
 1562Sol     OW 9175   1.595   0.162   8.278  0.4055  0.0442 -0.8080
 1562Sol     HW 9176   1.600   0.080   8.328  0.7575  1.2322  1.1519
 1562Sol     HW 9177   1.638   0.141   8.195  2.6901 -1.0949  0.6015
 1562Sol     MW 9178   1.600   0.153   8.275  0.0839  0.0722 -0.0362
 1563Sol     OW 9179   0.944   2.976   6.140 -0.2479 -0.5610 -0.3859
 1563Sol     HW 9180   0.950   3.029   6.061 -1.1735  0.3444  0.1361
 1563Sol     HW 9181   0.940   3.039   6.211 -1.7305 -1.3148  0.2289
 1563Sol     MW 9182   0.944   2.986   6.139  0.5746  0.0284  0.3880
 1564Sol     OW 9183   3.083   0.507   9.644 -0.2684  0.3338  0.1650
 1564Sol     HW 9184   3.062   0.523   9.736  0.6832 -1.4124  0.7178
 1564Sol     HW 9185   3.060   0.588   9.600  0.7016  1.7544  2.1854
 1564Sol     MW 9186   3.079   0.515   9.649 -0.4033  0.0710 -0.1958
 1565Sol     OW 9187   3.208   2.651   4.253 -0.2567  0.1109 -0.4181
 1565Sol     HW 9188   3.229   2.726   4.198 -1.0071  0.9130  0.3797
 1565Sol     HW 9189   3.242   2.575   4.204 -0.0421  0.9026 -1.5096
 1565Sol     MW 9190   3.213   2.651   4.243 -0.0941 -0.5130 -0.0187
 1566Sol     OW 9191   1.866   1.370   5.096 -0.3285  0.1510  0.0133
 1566Sol     HW 9192   1.926   1.431   5.139 -0.5633  0.1033  0.4101
 1566Sol     HW 9193   1.912   1.287   5.094 -0.0424  0.3191 -0.4482
 1566Sol     MW 9194   1.875   1.368   5.100  0.4467 -0.5689  0.1795
 1567Sol     OW 9195   2.889   0.273   5.771  0.0418 -0.1751 -0.6289
 1567Sol     HW 9196   2.798   0.291   5.796 -0.5116 -0.8516 -2.1016
 1567Sol     HW 9197   2.888   0.279   5.675  1.8234  1.0716 -0.5845
 1567Sol     MW 9198   2.880   0.275   5.764 -0.2277 -0.5639 -0.1296
 1568Sol     OW 9199   2.496   0.658   7.909 -0.9007  0.0435  0.4205
 1568Sol     HW 9200   2.511   0.736   7.855  0.4979  0.7409  1.7963
 1568Sol     HW 9201   2.422   0.680   7.964 -0.8457  0.2022  0.4307
 1568Sol     MW 9202   2.491   0.667   7.909 -0.1181 -0.2767 -0.2183
 1569Sol     OW 9203   0.553   2.124   4.509 -0.4262  0.2881 -0.2174
 1569Sol     HW 9204   0.493   2.082   4.448  0.2673  0.3796 -0.9715
 1569Sol     HW 9205   0.533   2.217   4.504  2.2612  0.7602 -3.2693
 1569Sol     MW 9206   0.546   2.128   4.503 -0.0507 -0.1650  0.4531
 1570Sol     OW 9207   1.157   2.478   2.206 -0.5186  0.1201  0.1163
 1570Sol     HW 9208   1.174   2.444   2.118  1.0419 -1.0903  0.8564
 1570Sol     HW 9209   1.062   2.487   2.210 -0.7273 -1.2144 -1.1988
 1570Sol     MW 9210   1.150   2.475   2.198 -0.4832  0.1345 -0.4779
 1571Sol     OW 9211   0.176   2.613   3.460 -0.3257  0.1904  0.1524
 1571Sol     HW 9212   0.225   2.563   3.395 -1.0773 -1.7835  1.0743
 1571Sol     HW 9213   0.232   2.615   3.537 -1.0688 -0.8156  0.7243
 1571Sol     MW 9214   0.185   2.609   3.461 -0.4708 -0.4930 -0.5879
 1572Sol     OW 9215   0.264   2.707   4.952 -0.2880  0.5120  0.3139
 1572Sol     HW 9216   0.218   2.763   4.890 -0.7693  0.0699  0.2751
 1572Sol     HW 9217   0.281   2.626   4.904 -1.8265 -0.3375  1.1530
 1572Sol     MW 9218   0.261   2.705   4.942  0.1191  1.1972  0.3887
 1573Sol     OW 9219   3.139   3.435   6.611  0.9122  0.6302  0.4018
 1573Sol     HW 9220   3.117   3.356   6.659  1.4292  1.7756  2.5536
 1573Sol     HW 9221   3.235   3.439   6.613  1.0010  0.1868 -1.5866
 1573Sol     MW 9222   3.146   3.428   6.615 -0.3301 -0.3659 -0.4052
 1574Sol     OW 9223   0.902   2.683   6.852  0.0464 -0.0532  0.0087
 1574Sol     HW 9224   0.893   2.707   6.944 -0.2623  1.5057 -0.4019
 1574Sol     HW 9225   0.898   2.588   6.851  1.2717 -0.1341  1.7267
 1574Sol     MW 9226   0.901   2.677   6.860  0.2820  0.4007  0.5105
 1575Sol     OW 9227   1.554   1.077   5.786 -0.4791 -0.9920 -0.2768
 1575Sol     HW 9228   1.633   1.030   5.813  0.4584  0.4390 -0.4866
 1575Sol     HW 9229   1.547   1.060   5.692  0.2525 -0.1608 -0.4903
 1575Sol     MW 9230   1.561   1.071   5.780 -0.3867  0.0121  0.4606
 1576Sol     OW 9231   0.754   3.169   8.037  0.3009 -0.2008 -0.2969
 1576Sol     HW 9232   0.707   3.241   7.993 -1.7123  0.1677  2.3647
 1576Sol     HW 9233   0.828   3.212   8.080 -0.4014  0.1351  0.5698
 1576Sol     MW 9234   0.756   3.180   8.037 -0.3909 -0.0811 -0.4052
 1577Sol     OW 9235   2.505   0.677   6.206  0.2353 -0.1262 -0.3651
 1577Sol     HW 9236   2.532   0.751   6.151 -0.2998 -0.6218 -1.3140
 1577Sol     HW 9237   2.476   0.717   6.287  1.9062  0.5589 -0.0857
 1577Sol     MW 9238   2.505   0.687   6.208 -0.1193 -0.0095 -0.3133
 1578Sol     OW 9239   1.573   2.435   2.931  0.5469  0.1746 -0.3696
 1578Sol     HW 9240   1.583   2.529   2.947  0.0466  0.2190 -0.3239
 1578Sol     HW 9241   1.499   2.409   2.985  0.0283 -0.0394 -1.1693
 1578Sol     MW 9242   1.567   2.441   2.937  0.4877  0.0744  0.2158
 1579Sol     OW 9243   2.386   0.086   7.699  0.0313 -0.1207 -0.3367
 1579Sol     HW 9244   2.445   0.142   7.751  1.3265 -0.5143 -1.3656
 1579Sol     HW 9245   2.398   0.115   7.609  0.2430 -1.6359 -0.8098
 1579Sol     MW 9246   2.392   0.094   7.696 -0.5747 -0.2305 -0.3456
 1580Sol     OW 9247   3.247   3.076   4.394  0.0778 -0.1432  0.3116
 1580Sol     HW 9248   3.211   3.162   4.371  0.4491  0.4149  1.7419
 1580Sol     HW 9249   3.175   3.031   4.437 -0.1788 -0.6402 -0.6202
 1580Sol     MW 9250   3.237   3.080   4.396 -0.5700 -0.2335  0.1878
 1581Sol     OW 9251   0.646   0.789   2.558  0.1764  0.0705  0.4790
 1581Sol     HW 9252   0.596   0.830   2.629  0.3517  1.2056 -0.0418
 1581Sol     HW 9253   0.712   0.736   2.602 -0.6309 -0.3804  1.1676
 1581Sol     MW 9254   0.647   0.788   2.569 -0.1298  0.4797  0.4158
 1582Sol     OW 9255   2.328   0.132   3.912  0.1884 -0.2160 -0.5619
 1582Sol     HW 9256   2.307   0.047   3.950  0.4712  0.2632  0.7021
 1582Sol     HW 9257   2.264   0.144   3.842 -0.9254 -0.7171  0.3593
 1582Sol     MW 9258   2.320   0.125   3.909 -0.0041 -0.4618  0.0562
 1583Sol     OW 9259   0.877   0.036   9.873  0.0613  0.2035  0.4740
 1583Sol     HW 9260   0.865  -0.046   9.920 -4.0954  0.9297  0.8699
 1583Sol     HW 9261   0.907   0.098   9.939 -2.0302  0.2657  1.4030
 1583Sol     MW 9262   0.879   0.035   9.883  0.6428 -0.1076  0.8445
 1584Sol     OW 9263   0.261   2.957   5.645 -0.4518  0.1246 -0.0452
 1584Sol     HW 9264   0.243   2.886   5.583 -0.8689  0.0795  0.1274
 1584Sol     HW 9265   0.215   2.931   5.724  0.9109 -0.3196  0.6295
 1584Sol     MW 9266   0.256   2.948   5.646  0.3549 -0.1245  0.2043
 1585Sol     OW 9267   0.705   1.618   6.223 -0.4663 -0.3970 -0.2839
 1585Sol     HW 9268   0.766   1.593   6.292 -1.0498 -0.6202  0.1530
 1585Sol     HW 9269   0.648   1.683   6.263  0.0977  0.5475 -0.9816
 1585Sol     MW 9270   0.706   1.622   6.233  0.9671 -0.1488 -0.3606
 1586Sol     OW 9271   0.877   3.116   3.263  0.2112  0.3810 -0.3018
 1586Sol     HW 9272   0.920   3.084   3.184  0.3914 -1.4988  0.5196
 1586Sol     HW 9273   0.898   3.050   3.330 -0.5769  1.5330  1.1136
 1586Sol     MW 9274   0.883   3.107   3.262  0.5530  0.1670 -1.0806
 1587Sol     OW 9275   2.404   0.754   6.971  0.4078  0.2215  0.2073
 1587Sol     HW 9276   2.386   0.674   7.021  1.3429  0.2266  0.5595
 1587Sol     HW 9277   2.351   0.745   6.892  0.1479 -0.5285  0.4585
 1587Sol     MW 9278   2.398   0.746   6.968  0.0372 -0.5069  0.3957
 1588Sol     OW 9279   3.096   2.837   7.772  0.1269  0.3569  0.5654
 1588Sol     HW 9280   3.100   2.919   7.723  1.5077  1.3078  2.1911
 1588Sol     HW 9281   3.094   2.864   7.864  1.5062 -1.4265  1.1609
 1588Sol     MW 9282   3.096   2.847   7.776 -0.5176 -0.2939 -0.1070
 1589Sol     OW 9283   0.680   0.490   5.111  0.5562 -0.6536  0.2770
 1589Sol     HW 9284   0.766   0.530   5.128  0.4181 -0.3883  0.3468
 1589Sol     HW 9285   0.698   0.423   5.044  0.2154  1.8163 -2.3681
 1589Sol     MW 9286   0.689   0.487   5.107 -0.4810  0.0908 -0.1365
 1590Sol     OW 9287   3.050   1.675   1.588  0.1506  0.2122 -0.4983
 1590Sol     HW 9288   3.136   1.675   1.546  0.1514  0.4334 -0.4967
 1590Sol     HW 9289   3.050   1.597   1.643 -0.0561 -0.3801 -1.3312
 1590Sol     MW 9290   3.058   1.668   1.590  0.2722 -0.1928 -0.0099
 1591Sol     OW 9291   2.320   3.430   1.349  0.4160 -0.2358  0.3273
 1591Sol     HW 9292   2.238   3.465   1.384  1.5460  3.0606 -0.1752
 1591Sol     HW 9293   2.362   3.504   1.306  2.7886 -2.3132 -1.1101
 1591Sol     MW 9294   2.316   3.440   1.348  0.4533  0.3973  0.2297
 1592Sol     OW 9295   2.572   1.189   7.535 -0.0263  0.2776  0.3758
 1592Sol     HW 9296   2.490   1.142   7.527  1.3149 -1.7430 -2.1217
 1592Sol     HW 9297   2.617   1.146   7.608  0.5959 -1.4723 -0.9980
 1592Sol     MW 9298   2.569   1.181   7.541 -0.1427  0.1670 -0.0661
 1593Sol     OW 9299   3.254   0.426   5.226  0.3544 -0.3981 -0.3777
 1593Sol     HW 9300   3.329   0.472   5.263 -1.1083  0.9910  0.9408
 1593Sol     HW 9301   3.213   0.491   5.168  0.3844 -1.2741 -1.3977
 1593Sol     MW 9302   3.257   0.436   5.224 -0.0508  0.4893 -0.5007
 1594Sol     OW 9303   0.846   1.520   3.217  0.1763  0.5864  0.4811
 1594Sol     HW 9304   0.818   1.610   3.231 -0.1450  0.4236  0.8848
 1594Sol     HW 9305   0.905   1.525   3.142 -2.3713  0.6493 -1.5690
 1594Sol     MW 9306   0.849   1.528   3.212  0.0493  0.5734 -0.0143
 1595Sol     OW 9307   1.177   0.206   6.932  0.2026 -0.0717  0.1465
 1595Sol     HW 9308   1.259   0.248   6.908 -0.9535  1.5136 -1.1073
 1595Sol     HW 9309   1.178   0.204   7.028  0.1934  3.0710  0.2571
 1595Sol     MW 9310   1.184   0.210   6.939  0.2022  0.0330 -0.8580
 1596Sol     OW 9311   1.679   1.415   7.334 -0.5085 -0.2376  0.1686
 1596Sol     HW 9312   1.771   1.397   7.313 -0.0594  0.2651  1.6026
 1596Sol     HW 9313   1.683   1.459   7.419 -1.9480  1.5990 -0.6940
 1596Sol     MW 9314   1.688   1.418   7.340  0.1123 -0.0525  0.3258
 1597Sol     OW 9315   0.484   2.405   2.925  0.1147  0.3094 -0.2182
 1597Sol     HW 9316   0.443   2.321   2.906  0.4016 -0.3450  1.9617
 1597Sol     HW 9317   0.510   2.439   2.839  1.7389 -2.7134 -1.0091
 1597Sol     MW 9318   0.483   2.401   2.916 -0.4019 -0.2931  0.5989
 1598Sol     OW 9319   2.099   0.142   9.409 -0.0379 -0.0109  0.1303
 1598Sol     HW 9320   2.008   0.114   9.411 -0.0720  0.1028  0.2136
 1598Sol     HW 9321   2.149   0.063   9.427  0.0069 -0.6122 -2.5085
 1598Sol     MW 9322   2.095   0.133   9.411  0.4306 -0.0696 -0.5155
 1599Sol     OW 9323   1.083   1.756   1.550 -0.1506 -0.2690  0.5466
 1599Sol     HW 9324   1.005   1.703   1.567 -1.1703  0.8407 -0.5966
 1599Sol     HW 9325   1.105   1.739   1.458  0.5316 -0.0053  0.6525
 1599Sol     MW 9326   1.078   1.750   1.543 -0.5275 -0.0629 -0.4602
 1600Sol     OW 9327   0.053   0.950   6.569  0.1097 -0.0959  0.3480
 1600Sol     HW 9328   0.025   1.036   6.598  0.1971  0.2237 -0.4918
 1600Sol     HW 9329   0.108   0.917   6.640 -1.0668 -0.0566  1.2985
 1600Sol     MW 9330   0.055   0.954   6.578 -0.2748  0.3253  0.2711
 1601Sol     OW 9331   0.065   1.011   7.190 -0.0441 -0.1339  0.2693
 1601Sol     HW 9332   0.057   1.039   7.099  0.1978  0.5043  0.4387
 1601Sol     HW 9333   0.093   0.920   7.186 -1.9602 -0.7255 -0.3105
 1601Sol     MW 9334   0.067   1.005   7.182  0.1349  0.1300  0.0824
 1602Sol     OW 9335   0.634   1.134   7.376  0.0665 -0.2995  0.1198
 1602Sol     HW 9336   0.717   1.157   7.418  0.0959 -0.7954  0.3423
 1602Sol     HW 9337   0.570   1.135   7.448  0.2637 -1.9453  0.3555
 1602Sol     MW 9338   0.636   1.136   7.387 -0.2732 -0.3219  0.3410
 1603Sol     OW 9339   1.508   1.439   1.704 -0.2515  0.4473  0.3271
 1603Sol     HW 9340   1.459   1.359   1.685  3.7130 -1.7889 -0.9703
 1603Sol     HW 9341   1.464   1.506   1.652 -1.4286 -1.6639 -1.5136
 1603Sol     MW 9342   1.500   1.438   1.697  0.6059  0.1724 -0.0692
 1604Sol     OW 9343   2.940   1.241   8.549  0.4219 -0.4076 -0.1261
 1604Sol     HW 9344   2.987   1.260   8.468 -0.0001  1.3496  0.0054
 1604Sol     HW 9345   2.877   1.312   8.557 -0.2963 -1.1741  1.1735
 1604Sol     MW 9346   2.939   1.249   8.543  0.6795  0.5133 -0.3135
 1605Sol     OW 9347   3.282   1.439   6.402 -0.0107 -0.5935 -0.0172
 1605Sol     HW 9348   3.366   1.440   6.356  0.4229 -0.2297  0.7808
 1605Sol     HW 9349   3.269   1.529   6.430  0.5098 -1.1102  1.9811
 1605Sol     MW 9350   3.289   1.447   6.400 -0.2252  0.4128 -0.2699
 1606Sol     OW 9351   1.213   0.735   6.782  0.5366  0.1515 -0.0034
 1606Sol     HW 9352   1.238   0.700   6.867  1.3990  1.6735  0.3858
 1606Sol     HW 9353   1.250   0.824   6.780 -0.6158  0.6274 -1.4172
 1606Sol     MW 9354   1.218   0.740   6.789  1.1778  0.0779 -0.4985
 1607Sol     OW 9355   2.657   0.995   3.267 -0.1835 -0.7247  0.1509
 1607Sol     HW 9356   2.664   0.914   3.215 -1.2022 -1.2456  0.8151
 1607Sol     HW 9357   2.569   1.027   3.249  0.3426  0.4413 -0.3805
 1607Sol     MW 9358   2.650   0.990   3.261 -0.1905  0.2237 -0.0839
 1608Sol     OW 9359   2.956   2.842   4.344  0.5762 -0.2149 -0.0451
 1608Sol     HW 9360   2.965   2.850   4.249  1.4141  0.3207  0.0686
 1608Sol     HW 9361   2.970   2.748   4.361  0.0511 -0.3734 -0.4863
 1608Sol     MW 9362   2.958   2.834   4.337  0.0672  0.0010 -0.2520
 1609Sol     OW 9363   2.760   3.171   1.584  0.3099  0.4127 -0.1318
 1609Sol     HW 9364   2.817   3.225   1.529 -0.6169 -0.0012 -1.5442
 1609Sol     HW 9365   2.676   3.170   1.537 -0.7352  0.6398  1.6640
 1609Sol     MW 9366   2.757   3.176   1.575  0.1405 -0.3954  0.5287
 1610Sol     OW 9367   1.916   2.463   6.500 -0.0166  0.6662  0.0151
 1610Sol     HW 9368   1.973   2.452   6.424 -0.5464  2.0491 -0.6015
 1610Sol     HW 9369   1.866   2.382   6.504  1.4326 -0.2358  0.0880
 1610Sol     MW 9370   1.916   2.455   6.493 -0.3075  0.4804  0.2562
 1611Sol     OW 9371   2.345   0.263   9.595 -0.4703  0.4399  0.0427
 1611Sol     HW 9372   2.371   0.354   9.581  0.0889  0.4571  1.1694
 1611Sol     HW 9373   2.304   0.262   9.681 -0.7471 -0.3189 -0.0897
 1611Sol     MW 9374   2.344   0.271   9.602  0.8328  0.4626  0.4602
 1612Sol     OW 9375   1.026   3.444   7.308 -0.1729  0.6693  0.3159
 1612Sol     HW 9376   0.962   3.424   7.240 -1.1123  2.0052  0.7899
 1612Sol     HW 9377   0.974   3.473   7.383  0.8493 -0.7359  1.6133
 1612Sol     MW 9378   1.016   3.445   7.309  0.2492 -0.5971 -0.3967
 1613Sol     OW 9379   2.623   1.824   2.810 -0.3850 -0.7918  0.0455
 1613Sol     HW 9380   2.647   1.820   2.903 -0.5213  1.0490  0.1922
 1613Sol     HW 9381   2.707   1.831   2.764 -0.2966 -2.1835 -0.0032
 1613Sol     MW 9382   2.633   1.825   2.815 -0.2428 -0.0066 -0.4536
 1614Sol     OW 9383   2.155   2.935   3.994 -0.7164  0.6915 -0.4975
 1614Sol     HW 9384   2.085   2.942   4.059 -0.5545  1.7114 -0.4304
 1614Sol     HW 9385   2.235   2.931   4.046 -0.7347 -0.8268 -0.5615
 1614Sol     MW 9386   2.156   2.935   4.005 -0.0690 -0.0064  0.3722
 1615Sol     OW 9387   3.217   3.320   6.046 -0.3348 -0.5014  0.2146
 1615Sol     HW 9388   3.167   3.397   6.071  0.5951 -0.3452  1.5969
 1615Sol     HW 9389   3.244   3.280   6.128  0.0457 -1.7495 -0.4978
 1615Sol     MW 9390   3.215   3.323   6.055 -0.3602 -0.2987  0.5776
 1616Sol     OW 9391   3.108   2.320   5.094  0.1125 -0.3919 -1.1272
 1616Sol     HW 9392   3.155   2.239   5.116  0.6567  0.4709  1.0212
 1616Sol     HW 9393   3.170   2.371   5.042  1.2455  0.3251  0.8799
 1616Sol     MW 9394   3.118   2.317   5.091  0.1581  0.0751 -0.4752
 1617Sol     OW 9395   0.784   0.482   9.789 -0.5306 -0.1336 -0.1396
 1617Sol     HW 9396   0.760   0.392   9.766 -0.5921 -0.0567 -0.3705
 1617Sol     HW 9397   0.714   0.512   9.846  0.1302 -0.6770  0.9700
 1617Sol     MW 9398   0.776   0.477   9.792  0.8442  0.1549 -0.0345
 1618Sol     OW 9399   1.429   2.113   9.448 -0.0723  0.4741 -0.4660
 1618Sol     HW 9400   1.382   2.041   9.491 -0.0380  1.6463  1.6094
 1618Sol     HW 9401   1.496   2.069   9.395 -0.7978 -1.0574 -0.1492
 1618Sol     MW 9402   1.431   2.103   9.447 -0.3088 -0.4722 -0.4919
 1619Sol     OW 9403   1.421   1.874   1.399  0.1847  0.0163  0.5328
 1619Sol     HW 9404   1.393   1.965   1.402  1.2034  0.3478  0.1461
 1619Sol     HW 9405   1.516   1.877   1.415  0.2565 -0.9523  0.3330
 1619Sol     MW 9406   1.427   1.882   1.401  0.2200  0.2775  0.0236
 1620Sol     OW 9407   3.296   3.376   9.288  0.1922 -0.0417 -0.1540
 1620Sol     HW 9408   3.297   3.280   9.285  0.8422 -0.0098 -1.4194
 1620Sol     HW 9409   3.337   3.398   9.371 -0.1365 -0.8629  0.2348
 1620Sol     MW 9410   3.300   3.369   9.295  0.1456  0.2645  0.2140
 1621Sol     OW 9411   1.320   2.717   5.249 -0.4812  0.3303  0.8407
 1621Sol     HW 9412   1.289   2.645   5.305  0.0802  1.0505  2.0799
 1621Sol     HW 9413   1.406   2.689   5.220 -1.2413 -0.5620 -0.6167
 1621Sol     MW 9414   1.325   2.708   5.252 -0.1569  0.3717 -0.7811
 1622Sol     OW 9415   2.562   1.980   4.381  0.1276  0.0543  0.1728
 1622Sol     HW 9416   2.527   2.042   4.317  0.7997 -0.2047 -0.4534
 1622Sol     HW 9417   2.501   1.906   4.378 -0.3842  0.4511  0.5452
 1622Sol     MW 9418   2.553   1.979   4.375 -0.0345  0.2354  0.4864
 1623Sol     OW 9419   1.786   0.900   3.285 -0.3030 -0.0050  0.3098
 1623Sol     HW 9420   1.841   0.968   3.322  0.3836  0.7474 -2.0359
 1623Sol     HW 9421   1.837   0.863   3.213 -0.7087 -2.9297  1.4570
 1623Sol     MW 9422   1.795   0.903   3.282 -0.1097 -0.1896 -0.0508
 1624Sol     OW 9423   0.458   1.493   6.370 -0.2819 -0.1400  0.1897
 1624Sol     HW 9424   0.466   1.433   6.445  1.6865 -0.9146 -0.6116
 1624Sol     HW 9425   0.433   1.576   6.409 -0.4905 -0.8347  1.5913
 1624Sol     MW 9426   0.457   1.495   6.381  0.2183 -0.1686 -0.2487
 1625Sol     OW 9427   0.787   0.920   3.910 -0.0925 -0.2084 -0.2091
 1625Sol     HW 9428   0.819   0.848   3.856  0.7990  0.4374 -0.5568
 1625Sol     HW 9429   0.802   0.891   4.000  0.0382 -0.5574 -0.3429
 1625Sol     MW 9430   0.791   0.911   3.913 -0.1069  0.2064 -0.2460
 1626Sol     OW 9431   0.037   0.181   7.643 -0.3266  0.0720  0.1865
 1626Sol     HW 9432   0.011   0.126   7.716  0.1797  0.9646  1.0482
 1626Sol     HW 9433   0.133   0.177   7.643 -0.1613  3.0067  1.8776
 1626Sol     MW 9434   0.043   0.176   7.649 -0.3150  0.6567 -0.2809
 1627Sol     OW 9435   0.628   3.374   2.942 -0.0394 -0.0370  0.2202
 1627Sol     HW 9436   0.695   3.443   2.934  0.3070 -0.2388  1.2954
 1627Sol     HW 9437   0.657   3.306   2.880  0.5059  0.0742  0.3461
 1627Sol     MW 9438   0.637   3.374   2.935  0.3176 -0.4335 -0.1363
 1628Sol     OW 9439   1.440   0.535   3.899  0.0630  0.5671  0.1758
 1628Sol     HW 9440   1.449   0.488   3.982 -0.9555 -0.6745 -0.3979
 1628Sol     HW 9441   1.511   0.503   3.845 -0.2154  0.1933  0.0275
 1628Sol     MW 9442   1.447   0.528   3.902  0.3583  0.4613  0.3403
 1629Sol     OW 9443   0.335   0.991   5.015  0.5505 -0.1318 -0.6155
 1629Sol     HW 9444   0.278   0.977   4.939  2.6150  0.3466 -2.2966
 1629Sol     HW 9445   0.294   1.063   5.063 -0.7740 -0.4311 -1.2783
 1629Sol     MW 9446   0.326   0.996   5.013  0.1127  0.0542 -0.3385
 1630Sol     OW 9447   0.955   2.206   5.964 -0.1684  0.0905 -0.1289
 1630Sol     HW 9448   1.021   2.211   5.894 -0.4403 -1.5657 -0.5365
 1630Sol     HW 9449   1.002   2.166   6.037 -0.5356 -0.4589 -0.1917
 1630Sol     MW 9450   0.965   2.203   5.964 -0.3954 -0.1917 -0.4501
 1631Sol     OW 9451   2.408   1.500   5.513  0.2834  0.0856  0.8787
 1631Sol     HW 9452   2.492   1.457   5.500 -1.3746 -2.5436 -1.7220
 1631Sol     HW 9453   2.389   1.488   5.606  1.8254 -1.1083  1.0637
 1631Sol     MW 9454   2.414   1.495   5.520  0.0540 -0.1698  0.1702
 1632Sol     OW 9455   2.608   1.958   8.445 -0.3049  0.2848 -0.0265
 1632Sol     HW 9456   2.557   1.954   8.364  0.3052  3.6768 -0.6597
 1632Sol     HW 9457   2.546   1.991   8.510 -0.4490 -1.2143  0.6145
 1632Sol     MW 9458   2.598   1.961   8.443  0.0607  0.1419  0.1714
 1633Sol     OW 9459   1.304   2.968   7.387 -0.1955 -0.0469 -0.7038
 1633Sol     HW 9460   1.395   2.988   7.411 -0.4019  0.4577 -0.3357
 1633Sol     HW 9461   1.258   3.051   7.396 -0.5323 -0.1277 -1.6702
 1633Sol     MW 9462   1.308   2.977   7.390  0.4193  0.6889 -0.0777
 1634Sol     OW 9463   1.502   2.031   2.774  0.1671  0.4113  0.2541
 1634Sol     HW 9464   1.429   2.091   2.788 -0.3590  1.0082 -4.4470
 1634Sol     HW 9465   1.462   1.951   2.741  1.6023  0.7735 -2.4610
 1634Sol     MW 9466   1.492   2.029   2.772 -0.4856  0.7071  0.4488
 1635Sol     OW 9467   3.237   0.697   5.436 -0.1663 -0.7783  0.1836
 1635Sol     HW 9468   3.324   0.684   5.398  0.7383  0.8234  1.6466
 1635Sol     HW 9469   3.223   0.791   5.432 -0.7520 -0.7485  2.2647
 1635Sol     MW 9470   3.244   0.704   5.432 -0.0271  0.1408 -0.3145
 1636Sol     OW 9471   3.299   2.247   3.172  0.3239  0.1361  0.3431
 1636Sol     HW 9472   3.318   2.319   3.113  2.0678 -1.3639 -0.9472
 1636Sol     HW 9473   3.302   2.169   3.117  0.5462 -1.1410  2.1291
 1636Sol     MW 9474   3.301   2.247   3.162 -0.1148 -0.3209 -0.0501
 1637Sol     OW 9475   3.125   3.296   7.669 -0.1610  0.2680 -0.2279
 1637Sol     HW 9476   3.203   3.276   7.618 -0.5172  1.6616 -1.3323
 1637Sol     HW 9477   3.157   3.313   7.757  0.4852 -1.8761 -0.0201
 1637Sol     MW 9478   3.135   3.296   7.672 -0.0825  0.3596  0.1168
 1638Sol     OW 9479   2.444   1.437   4.045  0.1301 -0.0547  0.8270
 1638Sol     HW 9480   2.399   1.388   4.114 -1.3693  1.0702  0.6823
 1638Sol     HW 9481   2.533   1.449   4.078 -0.4559  0.0997  2.3796
 1638Sol     MW 9482   2.448   1.434   4.054 -0.4006  0.1733  0.3654
 1639Sol     OW 9483   1.862   2.257   9.055  0.3230  0.6392 -0.6542
 1639Sol     HW 9484   1.783   2.246   9.107  0.7252  0.7034 -0.0225
 1639Sol     HW 9485   1.928   2.286   9.118 -0.0046  3.9575 -1.7450
 1639Sol     MW 9486   1.861   2.258   9.065  0.5020  0.1766 -0.6008
 1640Sol     OW 9487   0.070   2.037   5.554 -0.1248  0.3054 -0.0340
 1640Sol     HW 9488   0.141   2.102   5.552  0.7558 -0.6701 -2.0278
 1640Sol     HW 9489  -0.009   2.088   5.539  0.2232  1.3039  1.3876
 1640Sol     MW 9490   0.070   2.048   5.552 -0.2498  0.0806  0.1017
 1641Sol     OW 9491   0.230   0.586   6.427 -0.3858 -0.1077 -0.5262
 1641Sol     HW 9492   0.256   0.532   6.352  0.1157 -0.0949 -0.3621
 1641Sol     HW 9493   0.293   0.658   6.427  0.5988 -0.9559  0.8675
 1641Sol     MW 9494   0.238   0.588   6.420  0.1648 -0.2523 -0.3397
 1642Sol     OW 9495   1.624   3.311   8.975 -0.0203 -0.9194 -0.5101
 1642Sol     HW 9496   1.561   3.321   9.046  0.2463  0.4512 -0.4554
 1642Sol     HW 9497   1.571   3.315   8.895 -0.1535 -1.0438 -0.4280
 1642Sol     MW 9498   1.614   3.313   8.974  0.3576 -0.0696  0.0036
 1643Sol     OW 9499   1.690   0.457   7.496  0.4250 -0.0775 -0.3664
 1643Sol     HW 9500   1.718   0.415   7.415 -0.4106 -0.7731 -0.2998
 1643Sol     HW 9501   1.626   0.397   7.534 -0.3055  0.9482  0.0621
 1643Sol     MW 9502   1.687   0.448   7.492  0.3548 -0.7314  0.4792
 1644Sol     OW 9503   1.576   0.071   2.130  0.1491 -0.0912  0.0415
 1644Sol     HW 9504   1.529   0.006   2.078 -0.2281 -1.1066  1.6234
 1644Sol     HW 9505   1.523   0.081   2.210  0.4705  1.7638  0.0579
 1644Sol     MW 9506   1.567   0.066   2.133  0.4563 -0.2317  0.1201
 1645Sol     OW 9507   2.702   1.453   2.620  0.0004  0.1300  0.2070
 1645Sol     HW 9508   2.652   1.496   2.689 -0.0994  3.5589 -1.9224
 1645Sol     HW 9509   2.783   1.503   2.612  0.4112 -0.7399 -1.5721
 1645Sol     MW 9510   2.705   1.461   2.625 -0.2327  0.1049  0.1943
 1646Sol     OW 9511   2.967   1.242   8.069 -0.0673  0.1580  0.1957
 1646Sol     HW 9512   2.975   1.319   8.124 -0.0512 -0.6496  1.3316
 1646Sol     HW 9513   2.981   1.168   8.128  1.9962 -0.6737 -1.2469
 1646Sol     MW 9514   2.969   1.242   8.079 -0.4196 -0.3253  0.1366
 1647Sol     OW 9515   0.835   1.446   2.004  0.1858  0.3648 -0.2570
 1647Sol     HW 9516   0.820   1.487   2.089  1.6440 -1.5407  0.9983
 1647Sol     HW 9517   0.926   1.466   1.984  0.0974  0.0795 -0.9514
 1647Sol     MW 9518   0.842   1.451   2.010 -0.1976  0.0163  0.1281
 1648Sol     OW 9519   2.414   3.355   9.273 -0.1418 -0.1629  0.3620
 1648Sol     HW 9520   2.490   3.328   9.220 -1.1762  0.3228 -1.3821
 1648Sol     HW 9521   2.339   3.340   9.216 -1.4795 -1.5910  2.4320
 1648Sol     MW 9522   2.414   3.351   9.263 -1.0375  1.0975 -0.0075
 1649Sol     OW 9523   1.797   1.784   5.172  0.4719  0.0712 -0.1756
 1649Sol     HW 9524   1.775   1.749   5.086  1.5032 -0.7218 -0.1250
 1649Sol     HW 9525   1.892   1.783   5.175  0.5071  2.0935  0.1600
 1649Sol     MW 9526   1.803   1.781   5.165  0.5707  0.0583 -0.2557
 1650Sol     OW 9527   0.750   2.561   4.235  0.4277  0.4544 -0.2593
 1650Sol     HW 9528   0.806   2.624   4.190 -0.3338  0.6380 -0.9542
 1650Sol     HW 9529   0.782   2.476   4.206 -0.0021  0.5685 -1.0925
 1650Sol     MW 9530   0.758   2.559   4.228  0.4457 -0.0158 -0.1928
 1651Sol     OW 9531   2.879   1.717   6.132 -0.0587 -0.4768  0.7356
 1651Sol     HW 9532   2.837   1.803   6.121  0.1359 -0.6711 -1.9210
 1651Sol     HW 9533   2.821   1.670   6.191 -3.1072 -0.3516 -1.9861
 1651Sol     MW 9534   2.870   1.721   6.136 -0.0121  0.2971 -0.0343
 1652Sol     OW 9535   1.788   1.485   1.749 -0.7748  0.2450  0.1715
 1652Sol     HW 9536   1.799   1.579   1.763  0.9208 -0.0536  1.0236
 1652Sol     HW 9537   1.693   1.472   1.747 -1.0540  1.7077  2.0385
 1652Sol     MW 9538   1.781   1.493   1.750 -0.1667 -0.6003  0.3023
 1653Sol     OW 9539   1.927   3.277   3.065  0.2508 -0.1445  0.4295
 1653Sol     HW 9540   1.912   3.371   3.061  1.2352 -0.0046 -0.0810
 1653Sol     HW 9541   1.852   3.239   3.021  0.2446  0.4400 -0.0722
 1653Sol     MW 9542   1.919   3.282   3.061 -0.1688  0.1038  0.1821
 1654Sol     OW 9543   2.124   2.552   3.925 -0.6158 -0.0685  0.2989
 1654Sol     HW 9544   2.173   2.559   3.843 -1.9661  1.1670 -0.4307
 1654Sol     HW 9545   2.104   2.459   3.934 -0.1153 -0.2618 -0.5562
 1654Sol     MW 9546   2.127   2.544   3.918 -0.1196  0.2545 -0.2007
 1655Sol     OW 9547   1.746   0.265   3.349 -0.3532  0.1146  0.2809
 1655Sol     HW 9548   1.692   0.342   3.365  0.8026  0.8713  0.5900
 1655Sol     HW 9549   1.700   0.217   3.280 -1.0096  1.1322  0.0041
 1655Sol     MW 9550   1.737   0.267   3.345 -0.2129 -0.2812  0.0589
 1656Sol     OW 9551   2.403   3.425   6.453 -0.4806 -0.2949 -0.2938
 1656Sol     HW 9552   2.385   3.331   6.450 -0.7200 -0.2678  0.1798
 1656Sol     HW 9553   2.427   3.441   6.544 -0.3390  0.0838 -0.3994
 1656Sol     MW 9554   2.403   3.418   6.461 -0.1493  0.0179  0.0691
 1657Sol     OW 9555   0.418   2.299   2.503 -0.2812  0.2316 -0.1817
 1657Sol     HW 9556   0.441   2.246   2.579 -1.4580 -0.6205 -0.4201
 1657Sol     HW 9557   0.499   2.347   2.483 -0.2410  1.2018  2.1790
 1657Sol     MW 9558   0.428   2.299   2.508  0.0372  0.1227  0.4788
 1658Sol     OW 9559   0.611   1.220   1.665 -0.1062  0.5843  0.2440
 1658Sol     HW 9560   0.579   1.303   1.700  1.8855  1.4603  0.0837
 1658Sol     HW 9561   0.707   1.229   1.668  0.1106 -0.7098 -2.1294
 1658Sol     MW 9562   0.617   1.228   1.669  0.2765  0.3191  0.0149
 1659Sol     OW 9563   0.578   1.289   6.227  0.0472  0.5205 -0.9351
 1659Sol     HW 9564   0.571   1.382   6.249 -0.2290  0.8688 -2.4509
 1659Sol     HW 9565   0.655   1.259   6.275 -0.7377  1.1732  0.7582
 1659Sol     MW 9566   0.584   1.294   6.233 -0.3065 -0.0991  0.5745
 1660Sol     OW 9567   3.030   0.494   3.403  0.1901 -0.1747  0.4419
 1660Sol     HW 9568   3.095   0.438   3.360 -0.5909 -0.2790 -0.6381
 1660Sol     HW 9569   2.964   0.508   3.336 -0.9968 -0.2244  1.5962
 1660Sol     MW 9570   3.030   0.491   3.393 -0.4027 -0.1759  0.4794
 1661Sol     OW 9571   1.224   1.625   5.681  0.2777  0.0256  0.5037
 1661Sol     HW 9572   1.216   1.704   5.734 -0.4958 -0.3218  0.9097
 1661Sol     HW 9573   1.293   1.575   5.724 -0.2372 -0.1818  1.1045
 1661Sol     MW 9574   1.229   1.628   5.689  0.6879 -0.2400 -0.6172
 1662Sol     OW 9575   1.855   2.350   9.526  0.5247 -0.5328  0.1057
 1662Sol     HW 9576   1.839   2.419   9.462 -0.9351 -2.5883 -1.8295
 1662Sol     HW 9577   1.951   2.345   9.532  0.6536  1.6400  0.3236
 1662Sol     MW 9578   1.862   2.356   9.521 -0.3727  0.5171 -0.2311
 1663Sol     OW 9579   0.550   2.555   2.688  0.3918 -0.4261  0.1864
 1663Sol     HW 9580   0.586   2.522   2.606 -0.6210  0.0605 -0.4733
 1663Sol     HW 9581   0.461   2.582   2.665  0.0102 -0.5397  1.5116
 1663Sol     MW 9582   0.545   2.555   2.679  0.9948 -0.1426 -0.0301
 1664Sol     OW 9583   2.911   3.133   5.002  0.6189  0.1478  0.1103
 1664Sol     HW 9584   2.997   3.109   4.968  0.7578 -0.7014  1.0454
 1664Sol     HW 9585   2.868   3.177   4.928  1.7462  0.3488 -0.4455
 1664Sol     MW 9586   2.915   3.135   4.992  0.1111  0.1948 -0.0840
 1665Sol     OW 9587   2.967   2.521   6.126 -0.8069  0.3105 -0.2959
 1665Sol     HW 9588   3.061   2.503   6.124 -0.8316  0.3838 -2.2789
 1665Sol     HW 9589   2.952   2.580   6.053 -2.2677  1.0191  0.5496
 1665Sol     MW 9590   2.974   2.525   6.119  0.2408 -0.4632  0.1740
 1666Sol     OW 9591   2.012   1.354   6.228 -0.2430 -0.1079  0.2672
 1666Sol     HW 9592   1.921   1.374   6.204 -0.4412  0.8018  1.7507
 1666Sol     HW 9593   2.060   1.358   6.145 -1.1917  1.5139 -0.2129
 1666Sol     MW 9594   2.008   1.356   6.218 -0.0524  0.4787  0.2150
 1667Sol     OW 9595   2.627   1.146   6.831 -0.8340 -0.2426 -0.2597
 1667Sol     HW 9596   2.635   1.053   6.812  0.0970 -0.1438 -0.3741
 1667Sol     HW 9597   2.717   1.176   6.845 -1.1717  0.5070  0.4022
 1667Sol     MW 9598   2.636   1.140   6.831 -0.7503 -0.0919 -0.0281
 1668Sol     OW 9599   1.624   1.403   5.219  0.2082  0.0891 -0.8191
 1668Sol     HW 9600   1.713   1.386   5.190 -0.1472 -2.6404 -0.4430
 1668Sol     HW 9601   1.618   1.363   5.305 -1.7273 -0.8187 -1.3522
 1668Sol     MW 9602   1.631   1.398   5.224  0.3625 -0.3860 -0.0575
 1669Sol     OW 9603   2.728   1.412   7.729 -0.1948 -0.2313 -1.0106
 1669Sol     HW 9604   2.745   1.372   7.643  0.2823 -0.3101 -0.8798
 1669Sol     HW 9605   2.806   1.464   7.746  0.0309 -0.8024 -0.2846
 1669Sol     MW 9606   2.737   1.413   7.722  0.2260 -0.1557 -0.1956
 1670Sol     OW 9607   0.859   0.074   7.527 -0.1488 -0.3857 -0.3309
 1670Sol     HW 9608   0.861   0.158   7.572 -0.2254 -0.0859 -0.8825
 1670Sol     HW 9609   0.766   0.052   7.521 -0.0444 -1.3457  1.3492
 1670Sol     MW 9610   0.851   0.079   7.530  0.2578  0.3436  0.0896
 1671Sol     OW 9611   2.962   2.765   6.479  0.6076  0.2733  0.1910
 1671Sol     HW 9612   2.876   2.751   6.517  0.4342  0.0366 -0.2841
 1671Sol     HW 9613   2.952   2.842   6.423  0.5377 -0.1578 -0.3884
 1671Sol     MW 9614   2.954   2.771   6.477 -0.3990 -0.0823 -0.2068
 1672Sol     OW 9615   1.785   2.480   4.545  0.5410  1.0099 -0.9836
 1672Sol     HW 9616   1.791   2.410   4.610  2.4830  1.5627 -0.5251
 1672Sol     HW 9617   1.692   2.502   4.542  0.3602  0.7037  1.3240
 1672Sol     MW 9618   1.777   2.476   4.550 -0.4180  0.1532 -0.7749
 1673Sol     OW 9619   1.754   2.759   3.674  0.0520 -0.1681  0.0767
 1673Sol     HW 9620   1.706   2.841   3.663  2.9013  1.2441 -2.6190
 1673Sol     HW 9621   1.720   2.722   3.755 -2.9469  2.5213  0.1498
 1673Sol     MW 9622   1.747   2.763   3.680 -0.2447  0.8147  0.1282
 1674Sol     OW 9623   0.910   0.334   8.006 -0.1707 -0.0052 -0.3014
 1674Sol     HW 9624   0.914   0.423   8.041  0.4316 -0.0808 -0.1565
 1674Sol     HW 9625   0.858   0.286   8.070  1.6827 -0.3493  1.0039
 1674Sol     MW 9626   0.906   0.338   8.015  0.2808 -0.0455 -0.5924
 1675Sol     OW 9627   1.436   0.396   2.700 -0.3394 -0.2804 -0.0181
 1675Sol     HW 9628   1.409   0.393   2.608  0.7431 -2.7452 -0.3217
 1675Sol     HW 9629   1.439   0.489   2.722 -2.0191  0.2906 -2.0400
 1675Sol     MW 9630   1.434   0.404   2.694  0.1468 -0.7088  0.2150
 1676Sol     OW 9631   2.434   2.335   6.948  0.2808 -0.2647  0.2553
 1676Sol     HW 9632   2.499   2.273   6.915 -0.7467 -1.1094 -0.2244
 1676Sol     HW 9633   2.484   2.412   6.974  1.4814 -0.9731  0.0483
 1676Sol     MW 9634   2.444   2.336   6.947 -0.2264  0.4861  0.1470
 1677Sol     OW 9635   2.707   2.780   5.903 -0.3548  0.3917 -0.0411
 1677Sol     HW 9636   2.789   2.735   5.881  0.6203  2.2742 -0.3426
 1677Sol     HW 9637   2.719   2.808   5.994 -0.1795  1.7156 -0.4705
 1677Sol     MW 9638   2.716   2.778   5.909  0.2958 -0.3568  0.1619
 1678Sol     OW 9639   1.657   3.324   8.662 -0.1927 -0.6658 -0.5527
 1678Sol     HW 9640   1.723   3.261   8.689  0.0378 -0.3399 -0.3567
 1678Sol     HW 9641   1.678   3.343   8.570 -0.3671 -1.0043 -0.6642
 1678Sol     MW 9642   1.665   3.320   8.656 -0.3297 -0.4675 -0.1277
 1679Sol     OW 9643   3.201   1.848   1.958 -0.3367 -0.3777 -0.1302
 1679Sol     HW 9644   3.268   1.880   1.898  0.5543  1.2802  1.6737
 1679Sol     HW 9645   3.227   1.757   1.977 -0.6405 -0.9168 -2.2193
 1679Sol     MW 9646   3.210   1.843   1.955 -0.6090 -0.0332 -0.0114
 1680Sol     OW 9647   0.741   0.936   1.817  0.0578 -0.0145 -0.3563
 1680Sol     HW 9648   0.718   0.925   1.909  0.8185 -0.7206 -0.2547
 1680Sol     HW 9649   0.656   0.935   1.772 -0.2755 -0.2465  0.2678
 1680Sol     MW 9650   0.731   0.935   1.821  0.6374 -0.9777  0.0637
 1681Sol     OW 9651   2.551   0.529   6.643  0.4634  0.1398 -0.4454
 1681Sol     HW 9652   2.594   0.608   6.613 -0.9614  1.2172  0.2848
 1681Sol     HW 9653   2.590   0.459   6.591  1.5204  1.3525 -1.3103
 1681Sol     MW 9654   2.558   0.530   6.636 -0.5093 -0.2095  0.1597
 1682Sol     OW 9655   2.507   0.462   9.218  0.0373 -0.6356 -0.2316
 1682Sol     HW 9656   2.603   0.453   9.220  0.0474 -1.7517 -3.1334
 1682Sol     HW 9657   2.475   0.376   9.246 -0.1307 -0.4362  0.1941
 1682Sol     MW 9658   2.513   0.453   9.221  0.0828 -0.3543 -0.0930
 1683Sol     OW 9659   3.309   1.659   8.610  0.4440  0.2122  0.3974
 1683Sol     HW 9660   3.276   1.746   8.634  0.5539  0.4577 -0.3179
 1683Sol     HW 9661   3.236   1.600   8.629 -0.5008  0.7853 -1.3693
 1683Sol     MW 9662   3.299   1.662   8.614  0.4711 -0.0452 -0.2990
 1684Sol     OW 9663   3.313   0.225   7.362  0.6590 -0.3637 -0.3038
 1684Sol     HW 9664   3.257   0.295   7.396  1.5289 -0.1653  0.7302
 1684Sol     HW 9665   3.371   0.203   7.435 -0.6371 -3.2501 -0.0681
 1684Sol     MW 9666   3.313   0.229   7.372 -0.8110 -0.2140 -0.0424
 1685Sol     OW 9667   3.087   1.900   4.943  0.0067 -0.2177 -0.1887
 1685Sol     HW 9668   3.017   1.929   4.884 -0.2311 -1.9017 -0.7744
 1685Sol     HW 9669   3.053   1.820   4.983  1.0375 -0.2659  0.6171
 1685Sol     MW 9670   3.077   1.896   4.941 -0.3573 -0.3684  0.0880
 1686Sol     OW 9671   1.418   2.353   3.136 -0.4388 -0.7420  0.1474
 1686Sol     HW 9672   1.347   2.378   3.195  0.3754 -0.8680  1.2041
 1686Sol     HW 9673   1.493   2.338   3.194  0.8357  0.7799 -1.0569
 1686Sol     MW 9674   1.419   2.354   3.146 -0.4905  0.7843 -0.2082
 1687Sol     OW 9675   1.075   1.241   9.033 -0.3530 -0.3540  0.2439
 1687Sol     HW 9676   1.119   1.323   9.012 -0.7714 -0.0676  0.4751
 1687Sol     HW 9677   1.144   1.176   9.033 -0.0090  0.0103  0.1170
 1687Sol     MW 9678   1.085   1.243   9.031 -0.7576  0.0396 -0.2494
 1688Sol     OW 9679   2.288   2.316   7.829  0.2859 -0.3674  0.3145
 1688Sol     HW 9680   2.201   2.277   7.824  0.1320 -0.1957  1.4189
 1688Sol     HW 9681   2.284   2.373   7.906  1.4627 -0.5871  0.5464
 1688Sol     MW 9682   2.280   2.318   7.835  0.6781  0.6644 -0.1727
 1689Sol     OW 9683   2.272   2.143   1.568  0.2065  0.2446  0.2266
 1689Sol     HW 9684   2.306   2.225   1.531  1.3645 -0.8326 -1.1182
 1689Sol     HW 9685   2.326   2.075   1.530 -0.7556 -1.1740  1.3479
 1689Sol     MW 9686   2.280   2.144   1.561 -0.1339 -0.0903 -0.5366
 1690Sol     OW 9687   0.701   2.008   1.466 -0.0247  0.2326  0.2776
 1690Sol     HW 9688   0.782   2.024   1.418  0.3354 -1.4762  0.2627
 1690Sol     HW 9689   0.690   2.085   1.521  0.6839  1.2602 -1.0057
 1690Sol     MW 9690   0.707   2.016   1.467 -0.3613  0.6007 -0.5370
 1691Sol     OW 9691   1.703   1.312   8.929  0.6446  0.1692  0.5238
 1691Sol     HW 9692   1.667   1.391   8.888 -0.8394  0.2190  1.8767
 1691Sol     HW 9693   1.794   1.310   8.900  0.1523  1.2414 -1.2184
 1691Sol     MW 9694   1.708   1.319   8.922  0.0700  0.2484  0.0371
 1692Sol     OW 9695   1.054   2.880   6.743  0.4592 -0.2558 -0.1233
 1692Sol     HW 9696   1.010   2.941   6.802  1.9127  0.3669  0.3446
 1692Sol     HW 9697   1.041   2.794   6.784 -0.9618 -0.1907 -0.3993
 1692Sol     MW 9698   1.049   2.877   6.752  0.2276  0.0152  0.0105
 1693Sol     OW 9699   1.055   2.733   2.955  0.1605  0.1976 -0.1386
 1693Sol     HW 9700   1.017   2.819   2.974 -0.1165  0.0393  0.0322
 1693Sol     HW 9701   1.109   2.748   2.877 -1.0600  0.2109 -1.0139
 1693Sol     MW 9702   1.056   2.742   2.950  0.0843 -0.0151  0.2002
 1694Sol     OW 9703   2.476   3.371   1.963 -0.2039  0.3477 -0.0293
 1694Sol     HW 9704   2.433   3.286   1.975  0.8564 -0.1561  0.2355
 1694Sol     HW 9705   2.563   3.350   1.928 -0.0481  1.3431 -0.2694
 1694Sol     MW 9706   2.480   3.362   1.961  0.5643 -0.2492  0.3027
 1695Sol     OW 9707   1.716   3.107   6.424 -0.6258  0.2441 -0.2393
 1695Sol     HW 9708   1.790   3.093   6.366 -0.9901 -1.6980 -0.2660
 1695Sol     HW 9709   1.752   3.157   6.497  0.1722  1.3535 -1.3775
 1695Sol     MW 9710   1.725   3.110   6.425 -0.2351 -0.1735 -0.3095
 1696Sol     OW 9711   0.073   0.025   6.394  0.0387 -0.3523  0.0419
 1696Sol     HW 9712   0.057  -0.069   6.386 -1.8547 -0.2064  1.6882
 1696Sol     HW 9713   0.040   0.062   6.313  0.6046 -1.0792 -0.5288
 1696Sol     MW 9714   0.068   0.020   6.386 -0.7504 -0.1878  0.2095
 1697Sol     OW 9715   2.738   0.810   2.506 -0.1171 -0.5179 -0.6373
 1697Sol     HW 9716   2.826   0.777   2.523  0.6695  1.6881 -0.3469
 1697Sol     HW 9717   2.725   0.797   2.412  0.0419 -1.9346 -0.4765
 1697Sol     MW 9718   2.745   0.806   2.499  0.6128 -0.5162  0.3909
 1698Sol     OW 9719   0.304   1.876   3.846 -0.1718  0.2997 -0.2230
 1698Sol     HW 9720   0.380   1.894   3.901  0.5509  2.9594 -1.9682
 1698Sol     HW 9721   0.324   1.792   3.804  0.8191 -0.0624  0.9463
 1698Sol     MW 9722   0.313   1.870   3.847 -0.3739  0.3053 -0.4059
 1699Sol     OW 9723   0.315   0.496   9.729  0.0715 -0.1020 -0.1233
 1699Sol     HW 9724   0.359   0.566   9.680  1.4317 -0.3113  0.7689
 1699Sol     HW 9725   0.257   0.542   9.789 -0.0153  0.2133 -0.4443
 1699Sol     MW 9726   0.314   0.507   9.730 -0.3123 -0.6899  0.3603
 1700Sol     OW 9727   1.202   0.037   9.477  0.2858 -0.3866 -0.3644
 1700Sol     HW 9728   1.176   0.109   9.420 -0.4516 -0.7211 -0.4476
 1700Sol     HW 9729   1.124  -0.016   9.487  0.5661 -0.6493  0.4943
 1700Sol     MW 9730   1.193   0.039   9.473  0.3660  0.0061 -0.3325
 1701Sol     OW 9731   0.065   3.236   7.559 -0.0147 -0.0224 -1.1062
 1701Sol     HW 9732   0.088   3.294   7.632 -0.0155 -0.0788 -1.0617
 1701Sol     HW 9733   0.119   3.267   7.486  1.4458 -1.2197 -0.5632
 1701Sol     MW 9734   0.072   3.244   7.559  0.1608 -0.6381  0.1999
 1702Sol     OW 9735   3.005   0.715   2.586  0.0654  0.2888 -0.9006
 1702Sol     HW 9736   3.052   0.632   2.584  0.1663  0.3591 -1.7482
 1702Sol     HW 9737   3.072   0.781   2.567  0.1420  0.6460  0.5679
 1702Sol     MW 9738   3.015   0.714   2.584  0.2723  0.4145 -0.3595
 1703Sol     OW 9739   0.134   0.136   5.537 -0.9785  0.1601  0.2636
 1703Sol     HW 9740   0.192   0.071   5.498  0.6822  2.0409 -0.5435
 1703Sol     HW 9741   0.048   0.118   5.499 -0.3105 -0.8659 -0.7942
 1703Sol     MW 9742   0.131   0.129   5.530 -0.3061  0.3110 -0.2902
 1704Sol     OW 9743   2.548   3.208   3.628  0.2069 -0.2991  0.2691
 1704Sol     HW 9744   2.543   3.292   3.583  1.5298 -0.0538  0.5351
 1704Sol     HW 9745   2.626   3.167   3.591  0.1471 -0.9643  0.8833
 1704Sol     MW 9746   2.555   3.212   3.621  0.3516 -0.0944  0.5405
 1705Sol     OW 9747   0.210   2.810   1.489 -0.0338  0.3088  0.5952
 1705Sol     HW 9748   0.116   2.826   1.504 -0.0816 -0.0228  0.6585
 1705Sol     HW 9749   0.221   2.819   1.394 -0.5609 -1.8273  0.2995
 1705Sol     MW 9750   0.202   2.812   1.482 -0.2469  0.0409  0.0682
 1706Sol     OW 9751   3.286   2.161   6.618 -0.1190  0.2954 -0.2845
 1706Sol     HW 9752   3.334   2.118   6.688  0.1421  1.0574  0.0086
 1706Sol     HW 9753   3.340   2.149   6.540  0.1438  0.4292 -0.1233
 1706Sol     MW 9754   3.295   2.156   6.617  0.1076 -0.3492  0.0886
 1707Sol     OW 9755   1.299   1.557   8.052  0.3543  0.3151  0.5917
 1707Sol     HW 9756   1.250   1.586   7.975  1.4117  0.7513  0.0774
 1707Sol     HW 9757   1.315   1.464   8.035 -0.6998  0.0488  0.9900
 1707Sol     MW 9758   1.296   1.551   8.043 -0.4497  0.0858  0.0925
 1708Sol     OW 9759   1.467   1.115   6.257  0.5906  0.5109 -0.2067
 1708Sol     HW 9760   1.418   1.064   6.322 -0.0816  0.3043 -0.8744
 1708Sol     HW 9761   1.403   1.176   6.221  1.6312  2.5663  1.3316
 1708Sol     MW 9762   1.457   1.116   6.260 -0.4654  0.1126  0.2364
 1709Sol     OW 9763   2.168   3.122   7.470  0.1302  0.2646  0.4388
 1709Sol     HW 9764   2.149   3.043   7.520 -1.3821  0.4346  0.1437
 1709Sol     HW 9765   2.092   3.133   7.412  1.8405  0.0380 -1.9227
 1709Sol     MW 9766   2.160   3.116   7.469  0.1923 -0.1264  0.2671
 1710Sol     OW 9767   2.751   1.250   8.825 -0.1332  0.2433  0.2411
 1710Sol     HW 9768   2.713   1.172   8.784 -2.5251  1.1994  0.5694
 1710Sol     HW 9769   2.712   1.323   8.777 -0.1114  1.2901  1.8009
 1710Sol     MW 9770   2.744   1.250   8.817  0.1957 -0.1683 -0.0291
 1711Sol     OW 9771   0.354   3.441   2.794  0.2398 -0.2200 -0.0232
 1711Sol     HW 9772   0.310   3.480   2.869  0.5766 -0.3796  0.2611
 1711Sol     HW 9773   0.447   3.454   2.812  0.3052  0.2669 -0.6939
 1711Sol     MW 9774   0.359   3.446   2.803  0.3834  0.1391  0.8621
 1712Sol     OW 9775   0.795   3.438   2.460 -0.4640  0.2212  0.3545
 1712Sol     HW 9776   0.734   3.451   2.388  0.2980 -0.1980 -0.3655
 1712Sol     HW 9777   0.794   3.522   2.507 -0.9675  0.4905 -0.1256
 1712Sol     MW 9778   0.789   3.447   2.458  0.1601  0.2173  0.4368
 1713Sol     OW 9779   1.403   1.115   8.187 -0.2085 -0.5057  0.3689
 1713Sol     HW 9780   1.326   1.060   8.197 -0.5235  0.1415  1.5110
 1713Sol     HW 9781   1.409   1.164   8.269 -0.2105  1.5075 -0.7977
 1713Sol     MW 9782   1.397   1.115   8.195 -0.1938 -0.3219 -0.1547
 1714Sol     OW 9783   1.244   1.203   4.682  0.3650  0.6220  0.4834
 1714Sol     HW 9784   1.339   1.196   4.675  0.3886  0.1746  1.1978
 1714Sol     HW 9785   1.211   1.116   4.658  0.1734  0.6246  0.7229
 1714Sol     MW 9786   1.249   1.194   4.680  0.5437  0.4651 -0.2859
 1715Sol     OW 9787   1.464   1.416   6.938 -0.4171 -0.1334  0.0859
 1715Sol     HW 9788   1.377   1.453   6.920  0.6663  1.4639 -2.2883
 1715Sol     HW 9789   1.524   1.485   6.910  1.6417 -2.0558 -0.3205
 1715Sol     MW 9790   1.461   1.426   6.934 -0.1701  0.6286 -0.1326
 1716Sol     OW 9791   2.287   2.665   1.928 -0.8643  0.5725 -0.6988
 1716Sol     HW 9792   2.315   2.579   1.896  2.2539  0.5312  1.7744
 1716Sol     HW 9793   2.193   2.657   1.941 -0.5379 -2.6887 -0.0029
 1716Sol     MW 9794   2.281   2.657   1.927 -0.4198  0.9657 -0.3707
 1717Sol     OW 9795   3.308   0.485   9.518 -0.0998 -0.3354  0.1305
 1717Sol     HW 9796   3.357   0.561   9.548 -1.0876 -0.0231  0.9466
 1717Sol     HW 9797   3.236   0.476   9.580  0.0854 -2.0095  0.1258
 1717Sol     MW 9798   3.306   0.491   9.526  0.0170 -0.0385 -0.1239
 1718Sol     OW 9799   1.349   0.434   5.199 -0.2863 -0.5396 -0.2735
 1718Sol     HW 9800   1.274   0.416   5.143 -1.2574  0.4561  0.6897
 1718Sol     HW 9801   1.377   0.347   5.230  0.0868 -1.0658 -2.0544
 1718Sol     MW 9802   1.345   0.424   5.197 -0.0869 -0.3214 -0.6609
 1719Sol     OW 9803   2.006   2.201   2.381  0.4903 -0.3057  0.3020
 1719Sol     HW 9804   1.954   2.250   2.445  0.1679 -0.3227  0.0500
 1719Sol     HW 9805   2.002   2.110   2.411 -2.2049 -0.7963 -1.4626
 1719Sol     MW 9806   2.001   2.198   2.390  0.1482  0.4582 -0.0555
 1720Sol     OW 9807   0.552   2.539   8.107 -0.2792  0.1173  0.3814
 1720Sol     HW 9808   0.514   2.575   8.027 -1.1897 -1.5647  0.0382
 1720Sol     HW 9809   0.635   2.500   8.078 -0.0899  0.4613  0.4554
 1720Sol     MW 9810   0.556   2.538   8.097 -0.3141  0.5560  0.1511
 1721Sol     OW 9811   2.944   0.161   8.052  0.8083  0.0840  0.1236
 1721Sol     HW 9812   2.964   0.071   8.026  0.7803 -0.0822  0.6658
 1721Sol     HW 9813   2.870   0.153   8.112 -0.2414  0.6086 -1.0805
 1721Sol     MW 9814   2.939   0.152   8.055  0.1375 -0.8189 -0.0421
 1722Sol     OW 9815   0.893   1.802   8.248 -0.3825  0.2022  0.3277
 1722Sol     HW 9816   0.831   1.737   8.281 -0.3031 -0.2281 -0.3766
 1722Sol     HW 9817   0.845   1.848   8.180 -0.6365  1.2748  1.2106
 1722Sol     MW 9818   0.883   1.800   8.245  0.1978  0.1465 -0.1781
 1723Sol     OW 9819   2.458   2.684   6.446 -0.6677 -0.1239  0.6186
 1723Sol     HW 9820   2.395   2.745   6.409  0.1215 -0.4713 -1.3702
 1723Sol     HW 9821   2.414   2.599   6.445 -0.2853 -0.3176 -0.5163
 1723Sol     MW 9822   2.449   2.682   6.442  0.4018 -0.0616  0.1356
 1724Sol     OW 9823   0.996   0.613   7.945 -0.3964  0.0279 -0.6783
 1724Sol     HW 9824   1.066   0.591   7.883 -0.1136  1.4446 -0.8931
 1724Sol     HW 9825   1.037   0.676   8.005 -0.9173 -0.6804  0.4271
 1724Sol     MW 9826   1.006   0.617   7.945  0.3793 -0.0130 -0.2363
 1725Sol     OW 9827   1.229   3.243   7.354 -0.6790  0.0263 -0.1705
 1725Sol     HW 9828   1.175   3.314   7.319 -0.5272  1.6053  2.6276
 1725Sol     HW 9829   1.278   3.284   7.425  0.0530 -2.6993  0.9392
 1725Sol     MW 9830   1.228   3.253   7.357 -0.5413 -0.2125 -0.0725
 1726Sol     OW 9831   0.609   3.375   1.466  0.3224  0.3814 -0.4666
 1726Sol     HW 9832   0.677   3.310   1.452 -1.1149 -1.4097  0.6746
 1726Sol     HW 9833   0.655   3.459   1.462  2.4877 -0.7642 -0.1998
 1726Sol     MW 9834   0.619   3.377   1.464 -0.2071  0.5231  0.1858
 1727Sol     OW 9835   0.062   0.041   8.164 -0.0851 -0.0889  0.4491
 1727Sol     HW 9836   0.152   0.065   8.187 -1.0862  2.5021  1.8276
 1727Sol     HW 9837   0.014   0.123   8.163 -1.9423 -1.1072 -2.8208
 1727Sol     MW 9838   0.066   0.050   8.166 -0.1207  0.2722  0.3077
 1728Sol     OW 9839   2.641   0.558   3.546  0.1991 -0.0341  0.6429
 1728Sol     HW 9840   2.662   0.478   3.595  1.7379 -0.5508 -0.8162
 1728Sol     HW 9841   2.664   0.629   3.605  2.4065 -0.6462  0.5619
 1728Sol     MW 9842   2.645   0.557   3.555  0.0286  0.8585 -0.2141
 1729Sol     OW 9843   0.612   1.644   4.308  0.0912 -0.3356  0.1196
 1729Sol     HW 9844   0.670   1.618   4.380 -1.1627 -1.0969  0.8662
 1729Sol     HW 9845   0.530   1.599   4.326 -1.1848  1.8278 -0.2050
 1729Sol     MW 9846   0.610   1.638   4.316 -0.1040 -0.0145  0.5023
 1730Sol     OW 9847   0.810   1.395   7.123 -0.2497 -0.8289 -0.1636
 1730Sol     HW 9848   0.765   1.311   7.122 -0.4234 -0.7733  1.7691
 1730Sol     HW 9849   0.820   1.417   7.216  1.8855  0.1605 -0.5776
 1730Sol     MW 9850   0.807   1.390   7.131 -0.6043  0.5399 -0.2619
 1731Sol     OW 9851   1.705   2.474   2.698 -0.1486  0.1193  0.2424
 1731Sol     HW 9852   1.659   2.445   2.777 -1.2330 -0.8559 -0.7326
 1731Sol     HW 9853   1.635   2.494   2.636  0.7047  0.6653 -0.5517
 1731Sol     MW 9854   1.695   2.473   2.700  0.2894 -0.1456  0.0172
 1732Sol     OW 9855   1.145   1.236   3.025  0.3579 -0.0824 -0.3254
 1732Sol     HW 9856   1.111   1.215   2.937  1.0857  0.6644 -0.7919
 1732Sol     HW 9857   1.117   1.326   3.040  0.0115 -0.2952  0.3291
 1732Sol     MW 9858   1.139   1.242   3.018  0.9006  0.3042 -0.0822
 1733Sol     OW 9859   2.287   0.425   6.617  0.5962 -0.5425 -0.1488
 1733Sol     HW 9860   2.367   0.472   6.640  0.7180 -0.4404 -0.7814
 1733Sol     HW 9861   2.217   0.490   6.630  0.7803 -0.1304 -1.1810
 1733Sol     MW 9862   2.288   0.435   6.621 -0.0808 -0.4755  0.3141
 1734Sol     OW 9863   1.373   1.447   5.817  0.2237 -0.0195 -0.4323
 1734Sol     HW 9864   1.369   1.501   5.896  0.2767 -1.8116  0.8125
 1734Sol     HW 9865   1.465   1.421   5.810 -0.4125 -2.6755  0.8466
 1734Sol     MW 9866   1.381   1.450   5.823  0.1546 -0.3094  0.1784
 1735Sol     OW 9867   2.035   1.514   7.609 -0.3834 -0.3849 -0.5106
 1735Sol     HW 9868   2.004   1.486   7.523  1.6575 -0.7634 -1.1446
 1735Sol     HW 9869   2.113   1.566   7.591  0.6119 -1.2485  1.1630
 1735Sol     MW 9870   2.039   1.516   7.600 -0.7339  0.0113  0.4626
 1736Sol     OW 9871   3.014   0.416   3.057  0.0290  0.1295 -0.2583
 1736Sol     HW 9872   3.044   0.374   2.978  0.7598  0.2557 -0.0485
 1736Sol     HW 9873   3.080   0.396   3.123 -1.4135 -1.4104  0.7788
 1736Sol     MW 9874   3.022   0.411   3.056 -0.1468  0.5517 -0.3017
 1737Sol     OW 9875   0.813   1.109   3.129 -0.4521  0.0791  0.6019
 1737Sol     HW 9876   0.902   1.072   3.129  0.3354  1.8984  0.8074
 1737Sol     HW 9877   0.757   1.038   3.160  0.7385 -1.5283 -0.8586
 1737Sol     MW 9878   0.816   1.100   3.132  0.2532 -0.5253 -0.2929
 1738Sol     OW 9879   2.232   3.280   4.008  0.2566 -0.5794  0.0279
 1738Sol     HW 9880   2.248   3.270   4.102  0.2563  1.0793  0.2244
 1738Sol     HW 9881   2.138   3.264   3.998 -0.0264  0.6991  0.5471
 1738Sol     MW 9882   2.225   3.278   4.015  0.1513  0.3824 -0.5917
 1739Sol     OW 9883   3.154   2.189   7.340  0.1612 -0.0528 -0.0396
 1739Sol     HW 9884   3.190   2.276   7.323  2.1369 -0.5899  1.1566
 1739Sol     HW 9885   3.215   2.129   7.297 -0.3450 -0.9155  0.4253
 1739Sol     MW 9886   3.163   2.191   7.335 -0.0019  0.6991 -0.6342
 1740Sol     OW 9887   0.628   0.525   1.872 -0.1512 -0.1739 -0.1566
 1740Sol     HW 9888   0.586   0.444   1.843 -0.5974  0.2631 -0.7354
 1740Sol     HW 9889   0.683   0.551   1.798 -0.0898  0.1082 -0.0124
 1740Sol     MW 9890   0.629   0.520   1.863  0.1739 -0.2143 -0.1672
 1741Sol     OW 9891   2.372   1.752   9.407 -0.0837 -0.1205 -0.3270
 1741Sol     HW 9892   2.423   1.707   9.340  0.1402  1.2848 -1.1172
 1741Sol     HW 9893   2.316   1.812   9.358 -1.5694 -0.7102  0.6112
 1741Sol     MW 9894   2.372   1.753   9.397 -0.9035 -0.0029 -0.6125
 1742Sol     OW 9895   1.407   1.608   4.750 -0.1683 -0.3529 -0.2000
 1742Sol     HW 9896   1.482   1.640   4.699  1.6339 -2.8575  0.7471
 1742Sol     HW 9897   1.331   1.652   4.712  1.3730 -0.4759 -3.5996
 1742Sol     MW 9898   1.407   1.615   4.742  0.2900  0.5917  0.1798
 1743Sol     OW 9899   1.335   1.910   5.432 -0.2413  0.3949 -0.0015
 1743Sol     HW 9900   1.249   1.867   5.424 -0.6249  0.7706  1.9797
 1743Sol     HW 9901   1.391   1.843   5.471  0.3407  0.1975 -1.1690
 1743Sol     MW 9902   1.332   1.900   5.435 -0.1614 -0.7625  0.0743
 1744Sol     OW 9903   2.572   3.222   4.959  0.4091 -0.1057  0.0936
 1744Sol     HW 9904   2.524   3.156   5.010  0.2963 -0.1982 -0.1340
 1744Sol     HW 9905   2.533   3.218   4.872  2.1860 -1.5721 -0.6570
 1744Sol     MW 9906   2.564   3.216   4.956 -0.8770 -0.1287 -0.2731
 1745Sol     OW 9907   2.852   3.157   7.898 -0.2076 -0.1199  0.4750
 1745Sol     HW 9908   2.758   3.164   7.916 -0.1284 -0.5979  1.1062
 1745Sol     HW 9909   2.857   3.123   7.809 -0.6357 -0.2293  0.4912
 1745Sol     MW 9910   2.844   3.155   7.892 -0.0251 -0.2668  0.2870
 1746Sol     OW 9911   0.024   2.926   3.182  0.5202  0.0758  0.5557
 1746Sol     HW 9912   0.086   2.999   3.177 -0.1251  0.6767  1.3440
 1746Sol     HW 9913  -0.002   2.910   3.091  0.3181  1.1177  0.4319
 1746Sol     MW 9914   0.028   2.931   3.173  0.3154  0.5337 -0.3527
 1747Sol     OW 9915   1.078   2.229   1.398  0.1188 -0.3071 -0.0815
 1747Sol     HW 9916   1.171   2.211   1.412 -0.2661 -0.9712  1.7146
 1747Sol     HW 9917   1.064   2.315   1.439  0.2177  0.4508 -1.5811
 1747Sol     MW 9918   1.085   2.235   1.403 -0.0034 -0.6915  0.7880
 1748Sol     OW 9919   2.088   1.481   5.226  0.1387  0.1444  0.6143
 1748Sol     HW 9920   2.097   1.469   5.320  1.8765  2.3556  0.7818
 1748Sol     HW 9921   2.168   1.444   5.190 -0.4041 -0.4669  0.0361
 1748Sol     MW 9922   2.096   1.477   5.231 -0.3696 -0.1373 -0.4138
 1749Sol     OW 9923   2.569   2.130   4.615  0.1879 -0.7282 -0.1492
 1749Sol     HW 9924   2.574   2.076   4.536 -0.5076  0.9661 -1.3790
 1749Sol     HW 9925   2.656   2.169   4.622  0.1856 -0.7095 -0.2171
 1749Sol     MW 9926   2.577   2.128   4.608  0.0850 -0.0962  0.2235
 1750Sol     OW 9927   2.347   1.375   7.551 -0.6144 -0.3362 -0.4106
 1750Sol     HW 9928   2.414   1.306   7.558 -1.6661 -1.3534 -0.3474
 1750Sol     HW 9929   2.347   1.416   7.637 -0.4596 -0.7019 -0.2320
 1750Sol     MW 9930   2.353   1.372   7.559 -0.2047 -0.1281  0.5490
 1751Sol     OW 9931   1.600   2.962   3.672 -0.0407  0.1156  0.0018
 1751Sol     HW 9932   1.543   3.011   3.731  1.3208  1.2078  0.4439
 1751Sol     HW 9933   1.581   2.997   3.585  0.4453  0.9803  0.2351
 1751Sol     MW 9934   1.593   2.970   3.670  0.5672 -0.0895  0.1554
 1752Sol     OW 9935   0.679   1.373   2.638 -0.3312  0.3247 -0.2497
 1752Sol     HW 9936   0.615   1.329   2.582  2.8538 -0.7643 -3.1451
 1752Sol     HW 9937   0.705   1.306   2.702 -0.2868  0.0141 -0.5933
 1752Sol     MW 9938   0.675   1.363   2.639  0.6986 -0.2367  0.2697
 1753Sol     OW 9939   0.216   2.849   8.819 -0.4618 -0.0642 -0.0008
 1753Sol     HW 9940   0.219   2.920   8.755 -1.0722 -0.3581 -0.3561
 1753Sol     HW 9941   0.199   2.771   8.768  2.4864 -0.8343  0.1239
 1753Sol     MW 9942   0.214   2.849   8.809  0.2895  0.0216  0.0584
 1754Sol     OW 9943   2.848   3.285   8.523  0.0280  0.1079  0.3006
 1754Sol     HW 9944   2.802   3.282   8.439  1.3102 -1.4544 -0.3645
 1754Sol     HW 9945   2.802   3.222   8.579  0.2518 -0.1336  0.2126
 1754Sol     MW 9946   2.840   3.279   8.521 -0.2737  0.1528  0.0497
 1755Sol     OW 9947   0.730   2.684   2.376  0.3923  0.2176  0.4728
 1755Sol     HW 9948   0.755   2.776   2.369 -1.2901  0.6928  0.3718
 1755Sol     HW 9949   0.793   2.637   2.321  0.6604  1.4320 -0.2746
 1755Sol     MW 9950   0.738   2.688   2.370 -0.6753  0.2237 -0.1673
 1756Sol     OW 9951   2.033   2.862   2.235 -0.1293  0.1589 -0.2455
 1756Sol     HW 9952   2.007   2.889   2.147 -0.1332  3.2749  0.6582
 1756Sol     HW 9953   2.088   2.934   2.267  1.1027 -1.6096  1.7619
 1756Sol     MW 9954   2.036   2.871   2.230 -0.1621  0.4504  0.1220
 1757Sol     OW 9955   0.246   1.415   5.589  0.4228 -0.2591 -0.7776
 1757Sol     HW 9956   0.238   1.421   5.684 -1.8231 -2.0120 -0.8209
 1757Sol     HW 9957   0.216   1.500   5.557  1.9099  0.6177  0.0877
 1757Sol     MW 9958   0.243   1.423   5.595 -0.4140  0.0476 -0.1320
 1758Sol     OW 9959   1.545   0.400   4.131  0.6544 -0.6472  0.2356
 1758Sol     HW 9960   1.473   0.401   4.195  0.7065 -1.2406  0.3039
 1758Sol     HW 9961   1.616   0.448   4.173 -0.3055  1.5323 -0.5414
 1758Sol     MW 9962   1.545   0.404   4.140  0.0323  0.0680  0.3070
 1759Sol     OW 9963   2.352   2.593   4.067 -0.1519  0.1463 -0.5166
 1759Sol     HW 9964   2.281   2.599   4.002  0.1443 -2.1278 -1.0984
 1759Sol     HW 9965   2.407   2.521   4.036  0.4469 -0.4495  1.8238
 1759Sol     MW 9966   2.350   2.587   4.058  0.1857  0.1188  0.2417
 1760Sol     OW 9967   0.387   0.043   2.525 -0.2266 -0.0384  0.3639
 1760Sol     HW 9968   0.388   0.032   2.620  0.1821  2.5157  0.7075
 1760Sol     HW 9969   0.322   0.111   2.510 -0.5784 -0.7112 -1.2310
 1760Sol     MW 9970   0.382   0.048   2.533  0.4584  0.0325  0.0633
 1761Sol     OW 9971   2.135   0.449   9.547 -0.5706  0.0048  0.1195
 1761Sol     HW 9972   2.043   0.448   9.521 -0.4022  0.2029 -0.4989
 1761Sol     HW 9973   2.160   0.357   9.550 -0.5234 -0.0206 -0.7074
 1761Sol     MW 9974   2.129   0.441   9.545  0.0556 -0.2570  0.0075
 1762Sol     OW 9975   2.107   0.564   3.994  0.0823  0.4996  0.2733
 1762Sol     HW 9976   2.015   0.537   3.999 -0.1280  1.5101  3.3770
 1762Sol     HW 9977   2.106   0.644   3.941 -0.7460  0.1002 -0.3140
 1762Sol     MW 9978   2.099   0.569   3.990  0.4834 -0.0748 -0.2092
 1763Sol     OW 9979   1.200   0.668   2.814  0.1738 -0.1183  0.1492
 1763Sol     HW 9980   1.181   0.579   2.784 -1.8479 -0.6478  2.7843
 1763Sol     HW 9981   1.180   0.724   2.738  0.8134 -1.8394 -1.3082
 1763Sol     MW 9982   1.196   0.665   2.804  0.1079 -0.2820  0.1890
 1764Sol     OW 9983   3.094   2.684   4.977  0.9088  0.3723 -0.4001
 1764Sol     HW 9984   3.144   2.759   4.945  3.4899 -0.8138  0.6571
 1764Sol     HW 9985   3.154   2.610   4.964 -0.5812 -1.0972  0.9869
 1764Sol     MW 9986   3.104   2.684   4.973 -0.4654  0.3367  0.8207
 1765Sol     OW 9987   0.997   1.822   6.615  0.5129  0.0963  0.1352
 1765Sol     HW 9988   1.032   1.899   6.659 -0.7048  0.9392 -0.3197
 1765Sol     HW 9989   0.943   1.858   6.544  0.7030 -1.1949 -0.6835
 1765Sol     MW 9990   0.995   1.832   6.612 -0.4425 -0.2052 -0.1409
 1766Sol     OW 9991   3.195   1.794   3.284  0.2290 -0.2832 -0.0609
 1766Sol     HW 9992   3.242   1.714   3.308  0.0738  0.3971  2.7673
 1766Sol     HW 9993   3.103   1.766   3.279 -0.0940  0.0494  2.9524
 1766Sol     MW 9994   3.191   1.784   3.286 -0.8096  0.0578 -0.0790
 1767Sol     OW 9995   3.012   2.436   7.567  0.0159  0.2999  0.2718
 1767Sol     HW 9996   3.062   2.512   7.595 -0.4945  1.4190 -1.7821
 1767Sol     HW 9997   3.064   2.361   7.596  0.9841  1.4191  1.4759
 1767Sol     MW 9998   3.021   2.436   7.572 -0.2648 -0.8232 -0.0031
 1768Sol     OW 9999   1.211   2.891   4.256 -0.0296  0.3907  0.0526
 1768Sol     HW10000   1.278   2.931   4.200  0.4027  2.5811  2.0573
 1768Sol     HW10001   1.249   2.894   4.344 -0.9722 -2.3732  0.6067
 1768Sol     MW10002   1.221   2.895   4.259 -0.0749  0.4355 -0.6247
 1769Sol     OW10003   2.134   2.472   1.408  0.4886  0.1059  0.2751
 1769Sol     HW10004   2.086   2.389   1.418 -0.0546  0.0545 -2.5231
 1769Sol     HW10005   2.226   2.446   1.416  0.3540 -0.8826 -1.1445
 1769Sol     MW10006   2.138   2.462   1.410  0.2930  0.0781 -0.3579
 1770Sol     OW10007   1.674   0.003   1.767 -0.4098  0.7124 -0.0838
 1770Sol     HW10008   1.724   0.082   1.786 -2.6185  1.8843  0.9411
 1770Sol     HW10009   1.723  -0.067   1.811  1.9749  1.3341 -1.6376
 1770Sol     MW10010   1.683   0.004   1.773 -0.1264 -0.0788 -0.2695
 1771Sol     OW10011   1.160   2.610   5.038 -0.6267  0.2651  0.5647
 1771Sol     HW10012   1.174   2.516   5.039  1.3620  0.5408 -0.2501
 1771Sol     HW10013   1.218   2.644   5.106  0.7177  1.1528 -0.9938
 1771Sol     MW10014   1.166   2.605   5.044  0.2094 -0.3187 -0.0691
 1772Sol     OW10015   0.623   2.951   1.349 -0.4709  0.5263 -0.5694
 1772Sol     HW10016   0.637   2.871   1.298  1.6442 -0.2390  1.1482
 1772Sol     HW10017   0.570   2.923   1.424  0.3036  0.7159  0.0541
 1772Sol     MW10018   0.619   2.941   1.351 -0.6847 -0.2705 -0.4324
 1773Sol     OW10019   0.564   0.536   7.670  0.3423 -0.1690  0.3119
 1773Sol     HW10020   0.628   0.587   7.719  0.1003 -0.2756  0.7376
 1773Sol     HW10021   0.616   0.487   7.607  0.7242 -0.6571  1.0022
 1773Sol     MW10022   0.574   0.536   7.669 -0.1751  0.1693  0.1688
 1774Sol     OW10023   0.203   3.355   9.112 -0.5473 -0.2684 -0.7049
 1774Sol     HW10024   0.229   3.268   9.140 -0.6796 -0.7737 -2.1205
 1774Sol     HW10025   0.128   3.377   9.168 -0.4153 -0.9989 -0.2439
 1774Sol     MW10026   0.198   3.349   9.119  0.7386 -0.4825  0.1079
 1775Sol     OW10027   1.775   1.727   4.873  0.1026  0.2541  0.0653
 1775Sol     HW10028   1.767   1.634   4.895  0.6732 -0.2377 -1.7907
 1775Sol     HW10029   1.868   1.745   4.878  0.2040  0.2174 -1.6059
 1775Sol     MW10030   1.782   1.720   4.876  0.1533 -0.0221  0.3062
 1776Sol     OW10031   0.335   0.376   2.858 -0.4080 -0.4605  0.5293
 1776Sol     HW10032   0.373   0.322   2.928 -1.9927 -0.5847  1.2954
 1776Sol     HW10033   0.347   0.466   2.888 -0.2593 -0.4782  0.5266
 1776Sol     MW10034   0.340   0.379   2.867 -0.4659  0.2687 -0.3171
 1777Sol     OW10035   1.508   2.627   4.103 -0.4511 -0.1914 -0.3701
 1777Sol     HW10036   1.467   2.713   4.097 -0.1945 -0.0982 -0.7939
 1777Sol     HW10037   1.436   2.566   4.087 -0.5506 -0.0443 -0.4839
 1777Sol     MW10038   1.498   2.629   4.101 -0.2066 -0.0322 -0.4518
 1778Sol     OW10039   0.231   0.128   1.643  0.1946  0.6462  0.5131
 1778Sol     HW10040   0.222   0.170   1.558  0.7591  2.0044  1.0932
 1778Sol     HW10041   0.321   0.095   1.644  0.3430  1.0422  0.7405
 1778Sol     MW10042   0.239   0.129   1.636 -0.6841 -0.2467 -1.1184
 1779Sol     OW10043   2.529   3.336   9.604 -0.6039 -0.3806 -0.7380
 1779Sol     HW10044   2.572   3.283   9.537 -0.0459  0.8895 -1.3993
 1779Sol     HW10045   2.473   3.395   9.554 -0.1671  0.5913 -0.0807
 1779Sol     MW10046   2.528   3.336   9.593  0.1680 -0.1353 -0.1064
 1780Sol     OW10047   0.328   0.808   8.367  0.3062 -0.3571 -0.0093
 1780Sol     HW10048   0.296   0.835   8.453  0.9422  0.9533 -0.1825
 1780Sol     HW10049   0.250   0.810   8.311 -0.1504 -1.4266  0.5832
 1780Sol     MW10050   0.318   0.811   8.370 -0.0237  0.1705  0.2014
 1781Sol     OW10051   3.243   2.071   8.428  0.1652  0.3492 -0.2648
 1781Sol     HW10052   3.172   2.040   8.372 -0.9939  1.6580  0.4474
 1781Sol     HW10053   3.323   2.051   8.379 -0.7308 -0.3103 -1.4822
 1781Sol     MW10054   3.244   2.066   8.419 -0.0367  0.6161  0.5657
 1782Sol     OW10055   3.123   3.066   3.325 -0.1463 -0.1116  0.1378
 1782Sol     HW10056   3.157   3.153   3.344  0.2192 -0.2973  0.3347
 1782Sol     HW10057   3.187   3.027   3.266 -0.8486  0.1451 -0.7908
 1782Sol     MW10058   3.132   3.070   3.322 -0.3651  0.3575  0.0461
 1783Sol     OW10059   1.686   2.929   2.230  0.0554 -0.0368 -0.3282
 1783Sol     HW10060   1.730   3.008   2.263 -0.0711 -0.3238  0.5205
 1783Sol     HW10061   1.729   2.857   2.275 -0.5948 -0.3896 -0.2687
 1783Sol     MW10062   1.694   2.930   2.237 -0.2262 -0.5884  0.4261
 1784Sol     OW10063   1.922   1.870   8.938  0.5727  0.4305 -0.3649
 1784Sol     HW10064   1.847   1.812   8.952  1.0330 -0.1379 -0.1928
 1784Sol     HW10065   1.887   1.944   8.889 -0.0990  0.1700 -0.2862
 1784Sol     MW10066   1.912   1.871   8.935 -0.7829 -0.4104 -0.1283
 1785Sol     OW10067   0.393   3.080   7.665 -1.1455 -0.0505  0.1650
 1785Sol     HW10068   0.446   3.001   7.677 -0.7538  0.2862  0.6667
 1785Sol     HW10069   0.311   3.048   7.628 -0.6285 -0.5933 -0.5399
 1785Sol     MW10070   0.391   3.070   7.663  0.5972  0.0935 -0.4150
 1786Sol     OW10071   2.854   2.010   4.346 -0.6427 -0.0728  0.6051
 1786Sol     HW10072   2.855   2.105   4.332 -0.8673 -0.3484 -1.4103
 1786Sol     HW10073   2.761   1.989   4.357 -0.6640 -0.1626  0.2610
 1786Sol     MW10074   2.845   2.017   4.346  0.0090 -0.1211  0.3313
 1787Sol     OW10075   2.110   2.851   4.298  0.1822 -0.0793 -0.3969
 1787Sol     HW10076   2.201   2.834   4.322  0.0507 -1.3961 -0.7989
 1787Sol     HW10077   2.059   2.795   4.358 -0.4324  1.5865  0.6916
 1787Sol     MW10078   2.114   2.845   4.306 -0.2901 -0.2490  0.1309
 1788Sol     OW10079   2.843   3.380   8.843 -0.1135  0.4099  0.6674
 1788Sol     HW10080   2.886   3.295   8.844 -0.9608 -0.0254  1.6443
 1788Sol     HW10081   2.836   3.403   8.751 -0.6139 -0.9635  0.3471
 1788Sol     MW10082   2.846   3.375   8.835 -0.6758  0.0740  0.1123
 1789Sol     OW10083   1.257   0.324   2.942  0.5851  0.3886  0.2109
 1789Sol     HW10084   1.237   0.268   2.867 -1.3874  0.6204  0.5341
 1789Sol     HW10085   1.347   0.353   2.927  1.1665 -1.7639 -0.6529
 1789Sol     MW10086   1.263   0.321   2.934 -0.3857  0.6305 -0.0260
 1790Sol     OW10087   3.107   0.474   7.451  0.3317 -0.1285  0.0234
 1790Sol     HW10088   3.043   0.412   7.419  0.6958 -0.3874 -0.2058
 1790Sol     HW10089   3.115   0.454   7.545 -0.2797  0.2279  0.1543
 1790Sol     MW10090   3.102   0.467   7.457  0.2520 -0.0742 -0.0417
 1791Sol     OW10091   0.476   0.806   1.518 -0.1540 -0.2483 -0.1233
 1791Sol     HW10092   0.464   0.865   1.592 -0.8424  1.0878 -1.2588
 1791Sol     HW10093   0.527   0.858   1.455  0.4082 -1.3541 -0.6017
 1791Sol     MW10094   0.480   0.816   1.519 -0.1180  0.8734 -0.2611
 1792Sol     OW10095   0.707   2.150   5.788 -0.3991  0.1549  0.4703
 1792Sol     HW10096   0.748   2.076   5.742  0.3703  1.1521 -0.4797
 1792Sol     HW10097   0.769   2.172   5.857 -0.3538  0.2734  0.3924
 1792Sol     MW10098   0.716   2.145   5.790 -0.4972 -0.0206  0.1685
 1793Sol     OW10099   1.753   2.495   5.866 -0.4618  0.3378 -0.6001
 1793Sol     HW10100   1.671   2.489   5.914 -1.7364  0.6839 -2.6990
 1793Sol     HW10101   1.756   2.586   5.835  0.7375  0.3449 -0.4888
 1793Sol     MW10102   1.746   2.503   5.868  0.2963  0.7159  0.0177
 1794Sol     OW10103   1.071   1.250   7.958  0.1578 -0.4160 -0.7693
 1794Sol     HW10104   1.165   1.265   7.966 -0.2119  2.9204 -1.8374
 1794Sol     HW10105   1.033   1.302   8.029 -0.7896 -3.4637  1.0082
 1794Sol     MW10106   1.076   1.256   7.965 -0.0050  0.3993  0.1923
 1795Sol     OW10107   1.895   0.240   6.438 -0.0835  0.3810  0.3517
 1795Sol     HW10108   1.859   0.166   6.488 -1.1145  1.1047  0.6906
 1795Sol     HW10109   1.990   0.230   6.446 -0.2086  0.7876  2.9394
 1795Sol     MW10110   1.901   0.232   6.444  0.1960 -0.2547  0.5409
 1796Sol     OW10111   0.623   2.947   4.755  0.1052 -0.5100 -0.9160
 1796Sol     HW10112   0.583   2.955   4.841 -0.1226 -0.8475 -0.9872
 1796Sol     HW10113   0.704   2.998   4.760  0.6479 -1.4397 -0.1622
 1796Sol     MW10114   0.626   2.952   4.763 -0.2144 -0.0467  0.1432
 1797Sol     OW10115   0.856   2.353   2.031 -0.0978  0.6311 -0.1825
 1797Sol     HW10116   0.811   2.329   1.950 -0.8535  0.4741  0.2847
 1797Sol     HW10117   0.801   2.318   2.101  1.6989 -1.1797  0.3642
 1797Sol     MW10118   0.847   2.348   2.030 -0.0630 -0.1978 -0.3113
 1798Sol     OW10119   3.131   0.575   6.682 -0.6114  0.7211  0.0566
 1798Sol     HW10120   3.177   0.605   6.604 -0.6348 -1.7317 -0.9688
 1798Sol     HW10121   3.127   0.479   6.672 -0.0671  0.2871  3.3724
 1798Sol     MW10122   3.135   0.569   6.674  0.5016 -0.0010 -0.3780
 1799Sol     OW10123   0.624   2.244   5.180  0.4848 -0.1182  0.2880
 1799Sol     HW10124   0.705   2.287   5.152  1.2452 -2.3180 -0.9857
 1799Sol     HW10125   0.563   2.316   5.196  2.0356  1.4730 -0.8038
 1799Sol     MW10126   0.625   2.254   5.179  0.4624 -0.4330 -0.0190
 1800Sol     OW10127   2.288   0.873   7.340  0.7603  0.7543 -0.4307
 1800Sol     HW10128   2.350   0.896   7.270  0.7582 -1.8252 -1.3104
 1800Sol     HW10129   2.212   0.838   7.294 -1.2280  3.4856  0.6648
 1800Sol     MW10130   2.287   0.872   7.329 -0.2968  0.2615  0.2893
 1801Sol     OW10131   2.188   0.658   6.016 -0.2400  0.6101 -0.0922
 1801Sol     HW10132   2.269   0.656   5.964 -0.2803  0.2879 -0.1412
 1801Sol     HW10133   2.130   0.595   5.974  0.5835 -1.4280  1.7491
 1801Sol     MW10134   2.190   0.652   6.007  0.0231 -0.0560  0.2063
 1802Sol     OW10135   3.308   3.077   2.677  0.0853 -0.1654 -0.1709
 1802Sol     HW10136   3.335   3.140   2.745 -0.5966 -0.8310  0.7301
 1802Sol     HW10137   3.221   3.106   2.651  0.6973  0.6024 -1.4038
 1802Sol     MW10138   3.303   3.085   2.681 -0.0482 -0.7447  0.4235
 1803Sol     OW10139   1.186   3.324   3.418 -0.0200 -0.1665  0.1391
 1803Sol     HW10140   1.090   3.330   3.425 -0.3234 -1.3390 -2.5544
 1803Sol     HW10141   1.209   3.249   3.473 -1.0799 -2.1658 -2.0684
 1803Sol     MW10142   1.179   3.318   3.424 -0.3440 -0.1603 -0.5367
 1804Sol     OW10143   2.028   1.055   7.539  1.3313 -0.6969 -0.2323
 1804Sol     HW10144   2.088   0.986   7.567  0.8900 -1.6288 -1.5408
 1804Sol     HW10145   1.983   1.018   7.463 -0.1176  0.3952  0.0721
 1804Sol     MW10146   2.029   1.045   7.535  0.2750 -0.4008  0.0527
 1805Sol     OW10147   2.956   1.659   3.309  0.9009  1.1647 -0.4854
 1805Sol     HW10148   2.989   1.572   3.332  1.6417  1.7228  0.6079
 1805Sol     HW10149   2.889   1.642   3.243  1.3879 -0.1998 -0.6533
 1805Sol     MW10150   2.953   1.649   3.305 -0.0656 -0.5538 -0.0366
 1806Sol     OW10151   1.208   2.197   4.535 -0.0814  0.5399 -0.1279
 1806Sol     HW10152   1.224   2.257   4.608  0.6521  0.1972  0.0001
 1806Sol     HW10153   1.115   2.205   4.517 -0.4191  0.0880  1.3159
 1806Sol     MW10154   1.201   2.203   4.540 -0.1748 -0.1099 -0.0457
 1807Sol     OW10155   0.069   0.003   3.652 -0.0308  0.1305  0.2904
 1807Sol     HW10156   0.115   0.082   3.623 -1.6897  1.5451  1.4093
 1807Sol     HW10157  -0.019   0.012   3.615 -0.0023 -1.6007 -0.2319
 1807Sol     MW10158   0.066   0.011   3.646  0.0878  0.2552 -0.2853
 1808Sol     OW10159   1.425   3.336   9.193  0.1538 -0.5597 -0.1278
 1808Sol     HW10160   1.410   3.248   9.158 -0.0982 -0.9401  0.9193
 1808Sol     HW10161   1.444   3.323   9.286 -0.1379  0.5116  0.0990
 1808Sol     MW10162   1.425   3.327   9.198  0.1353 -0.4699  0.7801
 1809Sol     OW10163   3.164   1.135   7.310 -0.3902  0.4123 -0.6493
 1809Sol     HW10164   3.100   1.064   7.308 -1.0692  0.9827  0.7594
 1809Sol     HW10165   3.242   1.097   7.269 -0.1653 -1.7288  1.6383
 1809Sol     MW10166   3.165   1.125   7.306 -0.4400  0.0232 -0.2020
 1810Sol     OW10167   1.327   0.853   4.800  0.3896 -0.3281  0.3483
 1810Sol     HW10168   1.296   0.849   4.890  0.8969 -2.8333  0.4488
 1810Sol     HW10169   1.248   0.848   4.746  0.1976 -0.4950  0.6480
 1810Sol     MW10170   1.317   0.852   4.803  0.0030 -0.1497 -0.1342
 1811Sol     OW10171   2.946   0.722   5.807  0.6197  0.0719 -0.3561
 1811Sol     HW10172   2.911   0.773   5.880  0.3185 -2.1359  1.0856
 1811Sol     HW10173   2.982   0.787   5.747 -0.5650  2.0179  0.9996
 1811Sol     MW10174   2.946   0.732   5.808 -0.0987  0.3642  0.3355
 1812Sol     OW10175   1.108   1.749   5.400  0.4794  0.4910  0.5313
 1812Sol     HW10176   1.078   1.665   5.434  0.5894  0.2081 -0.0639
 1812Sol     HW10177   1.099   1.741   5.305 -1.1324  1.7777  0.5575
 1812Sol     MW10178   1.105   1.741   5.395  0.6169  0.0572  0.0483
 1813Sol     OW10179   2.357   2.460   8.998 -0.1217 -0.2288  0.2826
 1813Sol     HW10180   2.314   2.383   8.961  0.1072 -0.4748  0.5257
 1813Sol     HW10181   2.434   2.425   9.043  0.0864  0.1605  0.2331
 1813Sol     MW10182   2.360   2.450   8.999 -0.1912  0.3566 -0.1060
 1814Sol     OW10183   3.241   1.871   6.172  0.0656 -0.1298  0.5719
 1814Sol     HW10184   3.277   1.959   6.159 -0.9678  0.2098 -0.0403
 1814Sol     HW10185   3.184   1.880   6.248  0.6216 -0.4727  1.0303
 1814Sol     MW10186   3.239   1.880   6.178  0.4431 -0.1770  0.6468
 1815Sol     OW10187   2.737   1.669   9.381  0.0548  0.1033  0.5908
 1815Sol     HW10188   2.675   1.610   9.338  0.1250  0.7263 -0.3716
 1815Sol     HW10189   2.730   1.647   9.474 -0.1858 -1.1754  0.2846
 1815Sol     MW10190   2.731   1.662   9.385  0.5450 -0.3522  0.2030
 1816Sol     OW10191   0.292   3.248   3.668  0.2448 -0.5466  0.4455
 1816Sol     HW10192   0.231   3.312   3.631 -1.2135 -2.0692  0.1920
 1816Sol     HW10193   0.236   3.180   3.706  1.7746 -1.3930  1.2300
 1816Sol     MW10194   0.282   3.248   3.668  0.5312  0.3043  0.3500
 1817Sol     OW10195   2.133   1.826   7.848 -0.4291 -1.2350 -0.3421
 1817Sol     HW10196   2.139   1.779   7.931 -0.4628 -1.0025 -0.2078
 1817Sol     HW10197   2.044   1.808   7.816 -0.8156 -0.3925  0.2342
 1817Sol     MW10198   2.125   1.820   7.852  0.1488 -0.0123  0.1353
 1818Sol     OW10199   2.796   1.125   4.669  0.4133 -0.0262  0.5392
 1818Sol     HW10200   2.845   1.086   4.597 -0.3147 -0.1478  0.1043
 1818Sol     HW10201   2.727   1.062   4.688  0.7287 -0.0975  1.4941
 1818Sol     MW10202   2.795   1.116   4.664 -0.6240  0.1631  0.2159
 1819Sol     OW10203   0.046   0.340   2.983 -0.3977 -0.1437 -0.2336
 1819Sol     HW10204   0.053   0.363   3.076 -0.5529 -4.1222  0.8429
 1819Sol     HW10205   0.133   0.358   2.947  0.0193  0.3127  0.9789
 1819Sol     MW10206   0.054   0.344   2.988  0.0866 -0.1476  0.8426
 1820Sol     OW10207   0.603   1.205   9.806 -0.3631  0.0717 -0.4516
 1820Sol     HW10208   0.641   1.293   9.815 -0.6690  0.1245  0.3915
 1820Sol     HW10209   0.610   1.185   9.713  2.1667 -0.1023 -0.2636
 1820Sol     MW10210   0.607   1.211   9.798  0.0387 -0.1440  0.4351
 1821Sol     OW10211   1.280   1.918   9.569 -0.3237  0.0632  0.2917
 1821Sol     HW10212   1.220   1.970   9.621 -2.9427 -0.5516 -1.9906
 1821Sol     HW10213   1.254   1.827   9.585 -1.0210 -0.1423 -1.8204
 1821Sol     MW10214   1.273   1.914   9.575 -0.1563  0.0419  0.2809
 1822Sol     OW10215   3.255   2.368   2.007 -0.1661  0.3165 -0.1717
 1822Sol     HW10216   3.223   2.347   1.920 -2.7202  0.5217  0.6819
 1822Sol     HW10217   3.288   2.284   2.041  1.0146  0.2758 -1.3762
 1822Sol     MW10218   3.255   2.358   2.002  0.4768 -0.5869 -0.4444
 1823Sol     OW10219   2.321   1.639   8.486 -0.5667  0.4559  0.0126
 1823Sol     HW10220   2.409   1.653   8.453 -0.6945 -0.0281 -0.5329
 1823Sol     HW10221   2.301   1.548   8.465 -2.0515  1.1862 -1.9022
 1823Sol     MW10222   2.327   1.632   8.481  0.0337  0.1072  0.0486
 1824Sol     OW10223   2.053   2.330   9.236 -0.1562  0.2764  0.1885
 1824Sol     HW10224   2.041   2.412   9.284  0.4025  0.0689  0.6872
 1824Sol     HW10225   2.143   2.304   9.254  0.1056  0.2531 -1.0757
 1824Sol     MW10226   2.060   2.335   9.242  0.9570  0.2111  0.0308
 1825Sol     OW10227   2.541   0.971   8.095 -0.2030  0.8847  0.0393
 1825Sol     HW10228   2.605   1.028   8.052  0.4909 -0.5456 -0.8396
 1825Sol     HW10229   2.461   0.981   8.042 -0.5104  2.0819  0.6946
 1825Sol     MW10230   2.539   0.977   8.086  0.1850 -0.7495 -0.3470
 1826Sol     OW10231   0.531   1.578   4.603  0.3599  0.1565 -0.0892
 1826Sol     HW10232   0.452   1.627   4.623  1.0271  0.7928  1.0727
 1826Sol     HW10233   0.602   1.629   4.642  1.3672 -0.3336 -1.2053
 1826Sol     MW10234   0.530   1.587   4.608 -0.5111 -0.2596  0.3207
 1827Sol     OW10235   1.683   0.294   6.858 -0.5555  0.1851  0.0683
 1827Sol     HW10236   1.687   0.337   6.772  0.5672  2.6678  1.3238
 1827Sol     HW10237   1.756   0.232   6.856  2.4945  3.5969  0.9241
 1827Sol     MW10238   1.690   0.292   6.850  0.3396 -0.7619  0.0143
 1828Sol     OW10239   0.051   2.652   1.806 -0.0914 -0.1790 -0.4714
 1828Sol     HW10240   0.105   2.609   1.740 -0.3221 -0.6536 -0.3582
 1828Sol     HW10241  -0.038   2.622   1.787 -0.2529  0.2328 -0.3738
 1828Sol     MW10242   0.047   2.645   1.799  0.0184 -0.3260  0.6175
 1829Sol     OW10243   1.940   0.935   3.739 -0.5082  0.1038  0.4104
 1829Sol     HW10244   1.911   0.975   3.821 -1.4771  1.5363 -0.5863
 1829Sol     HW10245   1.961   1.010   3.683  0.4337 -0.8673 -0.5483
 1829Sol     MW10246   1.939   0.946   3.741 -0.4851  0.0223 -0.4328
 1830Sol     OW10247   2.113   0.451   6.232 -0.2582 -0.3478  0.3639
 1830Sol     HW10248   2.120   0.383   6.299 -0.4266 -0.8980 -0.1721
 1830Sol     HW10249   2.200   0.457   6.194  0.5447  1.9072  2.5045
 1830Sol     MW10250   2.121   0.445   6.234 -0.3071 -0.1412  0.1454
 1831Sol     OW10251   1.186   1.542   2.822  0.2713  0.0559  0.3816
 1831Sol     HW10252   1.164   1.494   2.742  0.0986  0.0840  0.4120
 1831Sol     HW10253   1.240   1.615   2.792  0.5867 -0.1924  0.3406
 1831Sol     MW10254   1.189   1.544   2.812  0.1317 -0.0153 -0.1976
 1832Sol     OW10255   2.739   0.967   1.740  0.4522 -0.0241 -0.5699
 1832Sol     HW10256   2.779   0.922   1.815 -0.4000 -0.2855 -0.2650
 1832Sol     HW10257   2.813   0.997   1.687  1.0595 -0.0263  0.2700
 1832Sol     MW10258   2.749   0.966   1.742 -0.1700  0.3520 -0.2650
 1833Sol     OW10259   2.605   0.599   1.839 -0.0481  0.2689 -0.1526
 1833Sol     HW10260   2.548   0.675   1.844 -0.8936 -0.0782 -3.3205
 1833Sol     HW10261   2.548   0.524   1.856  0.1421  0.1392 -0.0790
 1833Sol     MW10262   2.595   0.599   1.841  0.3533 -0.2255  0.0785
 1834Sol     OW10263   0.781   0.648   9.566 -0.0957  0.0655  0.4628
 1834Sol     HW10264   0.787   0.599   9.647 -0.7390  2.7441  2.1936
 1834Sol     HW10265   0.801   0.584   9.497  1.9162 -1.9073  2.7958
 1834Sol     MW10266   0.783   0.638   9.567 -0.2600  0.6465 -0.3675
 1835Sol     OW10267   2.624   0.167   4.178 -0.3049  0.5324  0.0644
 1835Sol     HW10268   2.656   0.107   4.245  0.7089  0.2661 -0.6405
 1835Sol     HW10269   2.558   0.221   4.222 -0.8869 -0.7858  0.8146
 1835Sol     MW10270   2.621   0.167   4.188 -0.5113 -0.1554  0.6071
 1836Sol     OW10271   0.935   2.731   7.119 -0.4597  0.2617  0.2099
 1836Sol     HW10272   1.022   2.768   7.131 -0.0233 -0.8617  0.5296
 1836Sol     HW10273   0.914   2.691   7.203 -0.6140 -0.8594 -0.3448
 1836Sol     MW10274   0.941   2.731   7.127 -0.5813 -0.3099 -0.4527
 1837Sol     OW10275   2.531   1.181   6.024  0.0043 -0.4666  0.9227
 1837Sol     HW10276   2.529   1.225   5.939  1.1958 -1.3081  0.4433
 1837Sol     HW10277   2.488   1.242   6.083  1.1138  1.1201  0.1559
 1837Sol     MW10278   2.527   1.191   6.021  0.2346  0.8282 -0.0574
 1838Sol     OW10279   2.700   1.899   7.998  0.3611  0.4806 -0.0248
 1838Sol     HW10280   2.790   1.926   8.020 -0.0462  2.0071 -0.1344
 1838Sol     HW10281   2.645   1.969   8.034 -0.7166  0.0451 -0.8022
 1838Sol     MW10282   2.703   1.908   8.003  0.2814  0.0497  0.2111
 1839Sol     OW10283   0.166   0.083   4.416 -0.1810 -0.3811 -0.4624
 1839Sol     HW10284   0.204   0.133   4.344 -0.2441 -0.2533 -0.4070
 1839Sol     HW10285   0.078   0.119   4.426  0.1195  0.1819  0.2342
 1839Sol     MW10286   0.161   0.091   4.410 -0.0288  0.1284 -0.4178
 1840Sol     OW10287   2.070   2.147   7.814  0.0835 -0.2209 -0.2200
 1840Sol     HW10288   2.021   2.152   7.896 -1.8799 -1.5035 -1.2873
 1840Sol     HW10289   2.116   2.063   7.817  0.0422 -0.2516 -0.4227
 1840Sol     MW10290   2.070   2.140   7.821  0.2134 -0.2056 -0.3926
 1841Sol     OW10291   0.366   1.771   9.154  0.2600 -0.1418 -0.7405
 1841Sol     HW10292   0.434   1.706   9.142  1.5421  0.8917  0.7556
 1841Sol     HW10293   0.405   1.853   9.124 -0.8792  0.1929 -1.3586
 1841Sol     MW10294   0.375   1.773   9.150  0.1300 -0.9722  0.6595
 1842Sol     OW10295   2.437   0.449   7.359  0.1512  0.1216 -0.0319
 1842Sol     HW10296   2.529   0.422   7.349  0.2538  0.7221 -0.7776
 1842Sol     HW10297   2.438   0.511   7.432  0.3207  0.0215  0.0502
 1842Sol     MW10298   2.446   0.452   7.364 -0.3057  0.1122 -0.0286
 1843Sol     OW10299   3.288   1.806   7.026  0.2490  0.2218 -0.1201
 1843Sol     HW10300   3.226   1.748   7.071  0.2129  0.3744  0.0262
 1843Sol     HW10301   3.374   1.775   7.054  0.2722 -0.7125 -1.2066
 1843Sol     MW10302   3.290   1.798   7.033 -0.1165  0.0086  0.5062
 1844Sol     OW10303   1.560   1.156   1.508  0.2475 -0.0668  0.3318
 1844Sol     HW10304   1.486   1.209   1.478  1.2454  1.6758  0.8380
 1844Sol     HW10305   1.548   1.149   1.602  0.3998 -0.2752  0.3350
 1844Sol     MW10306   1.552   1.160   1.513  0.0861  0.0594  0.0411
 1845Sol     OW10307   2.388   0.289   8.606  0.3986  0.2171  0.1944
 1845Sol     HW10308   2.430   0.215   8.649  0.9997 -1.1261 -2.6085
 1845Sol     HW10309   2.308   0.253   8.569  0.3746  1.1156 -0.6394
 1845Sol     MW10310   2.385   0.279   8.607 -0.4198 -0.0520  0.3325
 1846Sol     OW10311   0.170   1.024   4.807  0.9194  0.3102 -0.4701
 1846Sol     HW10312   0.137   1.105   4.845  1.4173  1.1049 -1.7114
 1846Sol     HW10313   0.103   0.998   4.744  0.4923 -0.5589  0.3262
 1846Sol     MW10314   0.161   1.029   4.805  0.3626  0.4988  0.0682
 1847Sol     OW10315   2.790   2.969   9.611 -0.5432  0.6423  0.2376
 1847Sol     HW10316   2.819   2.889   9.567 -1.2773  0.9779 -0.8590
 1847Sol     HW10317   2.870   3.019   9.627 -0.0015 -0.5715  1.4794
 1847Sol     MW10318   2.800   2.966   9.609 -0.1259  0.1543  0.2356
 1848Sol     OW10319   1.828   2.007   2.582  0.2745  0.0976  0.1993
 1848Sol     HW10320   1.808   1.990   2.674  3.6626  0.2571  1.0512
 1848Sol     HW10321   1.848   2.100   2.578  0.5405  0.0115 -0.6049
 1848Sol     MW10322   1.828   2.014   2.589  0.0306  0.4185  0.7651
 1849Sol     OW10323   1.876   1.788   7.737  0.2240  0.3200  0.3458
 1849Sol     HW10324   1.888   1.766   7.645  2.5493 -1.2606  0.9671
 1849Sol     HW10325   1.839   1.708   7.776 -2.7899  1.7076  0.4034
 1849Sol     MW10326   1.874   1.779   7.732 -0.0786 -0.2084  0.3415
 1850Sol     OW10327   0.670   0.124   4.652  0.0299  0.5416  0.1971
 1850Sol     HW10328   0.724   0.203   4.648  0.2775  0.3710  0.1437
 1850Sol     HW10329   0.594   0.145   4.598 -0.8606  1.4594  1.7697
 1850Sol     MW10330   0.668   0.133   4.647 -0.6631  0.5589  0.2972
 1851Sol     OW10331   0.062   1.599   7.819  0.3279  0.0030 -0.5753
 1851Sol     HW10332   0.130   1.644   7.770 -0.9751  0.2912 -2.1566
 1851Sol     HW10333   0.072   1.507   7.797  0.9188 -0.1035  0.1029
 1851Sol     MW10334   0.069   1.595   7.813  0.4091  0.3771 -0.3508
 1852Sol     OW10335   0.328   1.393   7.302 -0.1164  0.3329  0.2239
 1852Sol     HW10336   0.337   1.426   7.391  0.0827 -0.5962  0.5505
 1852Sol     HW10337   0.297   1.303   7.313  1.5020 -0.3399 -0.5931
 1852Sol     MW10338   0.326   1.388   7.311  0.2095  0.0344 -0.2569
 1853Sol     OW10339   0.486   1.934   5.354  0.0979 -0.2243  0.1248
 1853Sol     HW10340   0.517   1.905   5.268  0.0006 -1.9338  0.6331
 1853Sol     HW10341   0.473   1.852   5.403 -0.7455  0.6867  1.4505
 1853Sol     MW10342   0.487   1.924   5.351 -0.3622 -0.0670  0.2200
 1854Sol     OW10343   1.118   2.056   8.183 -0.3167  0.1035  0.2495
 1854Sol     HW10344   1.182   2.094   8.244 -0.5839 -0.5566  0.9471
 1854Sol     HW10345   1.083   1.980   8.229 -0.9454 -0.0691 -0.5022
 1854Sol     MW10346   1.121   2.052   8.193 -0.1017 -0.2555  0.4112
 1855Sol     OW10347   1.198   1.290   5.365 -0.3165 -0.0709  0.3457
 1855Sol     HW10348   1.264   1.354   5.339 -0.1438 -0.2030  0.4559
 1855Sol     HW10349   1.150   1.332   5.437 -0.2713 -0.0249  0.3483
 1855Sol     MW10350   1.199   1.299   5.369  0.0925  0.2026 -0.0577
 1856Sol     OW10351   1.399   2.807   2.397  0.3346  0.2231  0.4186
 1856Sol     HW10352   1.310   2.841   2.407  1.0676  1.9520  1.4595
 1856Sol     HW10353   1.443   2.871   2.341  1.4585  0.4925  1.5714
 1856Sol     MW10354   1.395   2.816   2.393 -0.1112 -0.1674  0.2449
 1857Sol     OW10355   0.414   1.862   2.126 -0.3406  0.1935  0.5169
 1857Sol     HW10356   0.447   1.939   2.080  0.0540  0.1374  0.7107
 1857Sol     HW10357   0.390   1.894   2.213  2.2169 -0.4138  1.4734
 1857Sol     MW10358   0.415   1.872   2.130 -0.2334 -0.3218 -0.3178
 1858Sol     OW10359   2.690   1.084   7.763 -0.1034  0.0125  0.3665
 1858Sol     HW10360   2.775   1.041   7.767  0.1494  0.3528 -1.1295
 1858Sol     HW10361   2.692   1.148   7.834  1.4070  0.9525 -0.4981
 1858Sol     MW10362   2.698   1.086   7.769 -0.2845 -0.1128  0.3170
 1859Sol     OW10363   0.357   2.731   2.580 -0.5515 -0.0928 -0.2563
 1859Sol     HW10364   0.275   2.778   2.585 -0.2098  0.8263 -2.4538
 1859Sol     HW10365   0.370   2.716   2.486  1.0330 -1.5603  0.1644
 1859Sol     MW10366   0.351   2.734   2.572 -0.0256 -0.0881  0.2242
 1860Sol     OW10367   2.971   1.566   2.561  0.1679  0.1110  0.3974
 1860Sol     HW10368   3.025   1.569   2.482 -0.4395  0.4040 -0.0120
 1860Sol     HW10369   3.033   1.567   2.633  0.6854  1.3486 -0.0595
 1860Sol     MW10370   2.981   1.566   2.561 -0.3914 -0.4888 -0.2307
 1861Sol     OW10371   2.404   2.972   2.239  0.2282 -0.5342 -0.4945
 1861Sol     HW10372   2.325   2.971   2.293  0.0770 -1.8622 -0.7382
 1861Sol     HW10373   2.425   2.880   2.224  1.8814 -0.2019 -0.3570
 1861Sol     MW10374   2.399   2.964   2.243 -0.0409 -0.0227  0.0366
 1862Sol     OW10375   2.022   3.121   8.092  0.1026 -0.5203 -0.2891
 1862Sol     HW10376   2.037   3.157   8.005  0.7443 -0.6772 -0.2412
 1862Sol     HW10377   2.019   3.026   8.079 -1.3737 -0.4762 -0.3838
 1862Sol     MW10378   2.023   3.115   8.083 -0.7265  0.0258  0.2413
 1863Sol     OW10379   1.310   1.190   5.849  0.3816  0.9152 -0.0670
 1863Sol     HW10380   1.335   1.283   5.844  0.9382  0.7809  0.2588
 1863Sol     HW10381   1.390   1.142   5.827  0.8288  0.4549  2.4729
 1863Sol     MW10382   1.319   1.194   5.847  0.1258  0.0725  0.4084
 1864Sol     OW10383   2.629   1.194   4.320 -0.1555  0.2153  0.3486
 1864Sol     HW10384   2.706   1.205   4.264  0.4572  2.3624  1.5457
 1864Sol     HW10385   2.650   1.244   4.399 -2.2044 -0.3680  1.2879
 1864Sol     MW10386   2.638   1.199   4.322  0.4005  0.5395 -0.1097
 1865Sol     OW10387   2.567   0.589   4.595  0.0595 -0.4503 -0.4632
 1865Sol     HW10388   2.487   0.631   4.627  0.6607  0.3658 -0.0253
 1865Sol     HW10389   2.617   0.660   4.556  1.0637 -0.7684  0.2331
 1865Sol     MW10390   2.564   0.599   4.594 -0.5240 -0.6630 -0.2353
 1866Sol     OW10391   1.870   1.082   5.470  0.2474  0.3103 -0.1050
 1866Sol     HW10392   1.874   0.987   5.457  2.7291  0.1864  1.4086
 1866Sol     HW10393   1.959   1.113   5.455 -0.4594  2.3860 -0.2454
 1866Sol     MW10394   1.878   1.076   5.467 -0.0885  1.0338 -0.7855
 1867Sol     OW10395   1.921   2.117   6.329 -0.0803 -0.1285  0.2185
 1867Sol     HW10396   1.961   2.037   6.298 -1.8355 -0.9959  0.1142
 1867Sol     HW10397   1.941   2.120   6.423  0.7655 -0.2058  0.0393
 1867Sol     MW10398   1.926   2.110   6.335  0.0006  0.3780  0.0779
 1868Sol     OW10399   1.347   0.607   7.531 -0.0652  0.3375  0.2223
 1868Sol     HW10400   1.309   0.665   7.465  0.1983 -0.4520 -0.6349
 1868Sol     HW10401   1.441   0.618   7.522 -0.0367  0.5316  0.7435
 1868Sol     MW10402   1.352   0.613   7.524  0.1223 -0.4338  0.3212
 1869Sol     OW10403   0.357   0.047   3.984  0.0186  0.3718  0.3214
 1869Sol     HW10404   0.262   0.042   3.971  0.1604 -0.5620 -0.4054
 1869Sol     HW10405   0.378  -0.036   4.028  0.3106  1.1596  1.6927
 1869Sol     MW10406   0.350   0.039   3.987 -0.0765  0.1760 -0.2547
 1870Sol     OW10407   2.820   2.370   7.786  0.3027 -0.3232 -0.2875
 1870Sol     HW10408   2.862   2.393   7.704  0.7538  1.7871  0.5035
 1870Sol     HW10409   2.855   2.432   7.850 -1.9474 -0.2772  0.9734
 1870Sol     MW10410   2.827   2.377   7.785 -0.0256 -0.1571 -0.1250
 1871Sol     OW10411   0.769   0.402   7.511 -0.0616  0.0501 -0.0035
 1871Sol     HW10412   0.809   0.448   7.437  1.0456 -1.3948 -0.3171
 1871Sol     HW10413   0.843   0.368   7.561 -0.8478 -0.7567  0.6221
 1871Sol     MW10414   0.779   0.403   7.509  1.3587 -0.0735  0.9100
 1872Sol     OW10415   1.645   0.856   9.362  0.1500  0.6362  0.0229
 1872Sol     HW10416   1.580   0.921   9.388 -0.7212  0.7620 -2.3540
 1872Sol     HW10417   1.673   0.884   9.274  0.6777 -1.5017 -0.5152
 1872Sol     MW10418   1.642   0.865   9.356 -0.2674  0.3382  0.2245
 1873Sol     OW10419   1.557   2.478   1.356 -0.6546  0.0847 -0.0698
 1873Sol     HW10420   1.644   2.493   1.392  0.0847 -0.4239 -1.5940
 1873Sol     HW10421   1.548   2.544   1.287 -1.5097  0.1799  0.1224
 1873Sol     MW10422   1.564   2.485   1.353  0.8672 -0.1398 -0.3489
 1874Sol     OW10423   0.420   0.590   3.033 -0.1077  0.4949 -0.0958
 1874Sol     HW10424   0.394   0.531   3.104  1.3915  1.4604  1.2927
 1874Sol     HW10425   0.513   0.573   3.019  1.0062  4.1557  2.0315
 1874Sol     MW10426   0.426   0.584   3.038  0.1045 -0.8766 -0.1808
 1875Sol     OW10427   2.679   1.121   5.647  0.2608 -0.2949 -0.6293
 1875Sol     HW10428   2.587   1.093   5.646  0.0301  0.1727  2.5041
 1875Sol     HW10429   2.679   1.200   5.702  2.5043 -0.0778 -0.9015
 1875Sol     MW10430   2.671   1.126   5.652 -0.0134  0.0408  0.0038
 1876Sol     OW10431   3.128   1.596   2.287  0.2706  0.1786 -0.0425
 1876Sol     HW10432   3.216   1.565   2.308 -0.1391  0.5327  2.2413
 1876Sol     HW10433   3.133   1.691   2.294 -0.9118  0.0779  2.6584
 1876Sol     MW10434   3.136   1.602   2.289 -0.1442  0.1123  0.7382
 1877Sol     OW10435   2.076   2.457   4.869 -0.7913  0.1858 -0.2000
 1877Sol     HW10436   2.108   2.547   4.864  0.8278 -0.4346 -1.5052
 1877Sol     HW10437   2.125   2.417   4.941 -0.8093  0.0812 -0.2447
 1877Sol     MW10438   2.083   2.461   4.875 -0.1813  0.0126  0.0390
 1878Sol     OW10439   2.938   0.223   4.795  0.2588  0.5837  0.3994
 1878Sol     HW10440   2.892   0.226   4.879 -0.8441 -4.3347  0.0975
 1878Sol     HW10441   3.030   0.205   4.818  0.2699  0.8889  0.5961
 1878Sol     MW10442   2.942   0.222   4.805  0.4139  0.3220 -0.0089
 1879Sol     OW10443   1.199   1.852   5.861 -0.1850 -0.4216  0.1901
 1879Sol     HW10444   1.195   1.846   5.956 -0.2362  0.1909  0.2275
 1879Sol     HW10445   1.119   1.898   5.836  0.4615  0.5927 -0.0434
 1879Sol     MW10446   1.191   1.855   5.867  0.3187 -0.2332 -0.1668
 1880Sol     OW10447   2.184   3.088   5.476 -0.1132  0.1448 -0.3535
 1880Sol     HW10448   2.237   3.053   5.547  0.2172 -0.5219 -0.9317
 1880Sol     HW10449   2.179   3.182   5.494  0.4476  0.0629  0.2361
 1880Sol     MW10450   2.188   3.094   5.484 -0.2158 -0.0293  0.0728
 1881Sol     OW10451   1.852   3.196   6.674 -0.2906  0.0278  0.0313
 1881Sol     HW10452   1.822   3.191   6.765  0.0616 -1.7891  0.0627
 1881Sol     HW10453   1.946   3.179   6.679 -0.2802 -0.1311 -0.6737
 1881Sol     MW10454   1.858   3.194   6.683  0.2176  0.0877 -0.2094
 1882Sol     OW10455   2.222   1.323   5.466 -0.0795  0.3945 -0.0795
 1882Sol     HW10456   2.295   1.384   5.459  0.0476  0.4568  1.5693
 1882Sol     HW10457   2.250   1.246   5.418  2.1399 -0.5579  2.6137
 1882Sol     MW10458   2.231   1.322   5.461  0.0973  0.2877  0.0172
 1883Sol     OW10459   0.638   2.440   2.431  0.0581  0.2557 -0.1190
 1883Sol     HW10460   0.713   2.398   2.474 -0.5149 -0.3516  0.2928
 1883Sol     HW10461   0.667   2.530   2.416  1.5589 -0.4399 -1.6268
 1883Sol     MW10462   0.647   2.444   2.434 -0.1628 -0.5222 -0.1597
 1884Sol     OW10463   3.133   2.172   3.634 -0.6862  0.2736 -0.4420
 1884Sol     HW10464   3.061   2.114   3.612 -0.6462  0.5195 -1.2344
 1884Sol     HW10465   3.165   2.204   3.550 -0.0594  0.6578 -0.0652
 1884Sol     MW10466   3.130   2.170   3.625  0.2392  0.3046  0.1357
 1885Sol     OW10467   0.834   1.795   3.553 -0.3439  0.4852 -0.0027
 1885Sol     HW10468   0.794   1.881   3.565 -1.8683 -0.2319  0.1782
 1885Sol     HW10469   0.840   1.785   3.458  0.5303  1.0957 -0.0179
 1885Sol     MW10470   0.831   1.802   3.545  0.3127 -0.3937  0.5432
 1886Sol     OW10471   0.123   3.023   4.140 -0.0259  0.0900  0.7911
 1886Sol     HW10472   0.105   2.937   4.104  1.6445 -0.3958  1.0625
 1886Sol     HW10473   0.104   3.014   4.234  2.2663 -0.6391  1.2109
 1886Sol     MW10474   0.120   3.014   4.145 -0.4752 -0.6409 -0.4336
 1887Sol     OW10475   2.000   1.677   5.533  0.0118 -0.2681 -0.0550
 1887Sol     HW10476   2.073   1.718   5.488 -0.0113 -0.6887 -0.4839
 1887Sol     HW10477   2.014   1.696   5.625  0.9813 -0.8327 -0.0827
 1887Sol     MW10478   2.008   1.682   5.537 -0.1263 -0.6373 -0.4274
 1888Sol     OW10479   2.048   3.225   2.423 -0.0353 -0.3301  0.2960
 1888Sol     HW10480   2.094   3.263   2.348 -0.2362  0.7334  0.6958
 1888Sol     HW10481   2.108   3.158   2.455 -0.4027 -1.5098 -1.4318
 1888Sol     MW10482   2.058   3.223   2.419  0.7254  0.1097 -0.3946
 1889Sol     OW10483   1.761   2.418   1.562 -0.2557 -0.3527 -0.1412
 1889Sol     HW10484   1.741   2.377   1.646  1.3020  1.5311  1.1777
 1889Sol     HW10485   1.764   2.345   1.500 -0.6191 -1.8574  1.5633
 1889Sol     MW10486   1.759   2.408   1.564 -0.1049 -0.4854 -0.2638
 1890Sol     OW10487   1.979   1.596   2.371  0.5751 -0.5223 -0.6207
 1890Sol     HW10488   1.886   1.607   2.352  0.4498 -0.2070  0.1619
 1890Sol     HW10489   2.020   1.586   2.285 -0.2583 -1.2927 -0.9320
 1890Sol     MW10490   1.975   1.597   2.362 -0.4691 -0.4033 -0.0486
 1891Sol     OW10491   2.123   0.260   6.762 -0.3440 -0.1040  0.2743
 1891Sol     HW10492   2.145   0.289   6.674 -0.1601 -1.0343  0.0123
 1891Sol     HW10493   2.159   0.328   6.819 -0.3776  0.4470 -0.3544
 1891Sol     MW10494   2.128   0.269   6.760  0.2576  0.6255  0.1412
 1892Sol     OW10495   0.934   1.383   3.704 -0.7555 -0.4465  0.1305
 1892Sol     HW10496   1.002   1.387   3.638  0.0188  2.2690  1.0539
 1892Sol     HW10497   0.927   1.290   3.725  1.9557 -0.8716 -0.6764
 1892Sol     MW10498   0.939   1.375   3.700 -0.3656 -0.1536 -0.0202
 1893Sol     OW10499   1.180   0.809   9.029 -0.0387  0.0709  0.3916
 1893Sol     HW10500   1.204   0.896   9.059 -0.1068  0.5988 -1.0738
 1893Sol     HW10501   1.108   0.823   8.968 -1.5152 -1.1931  1.8017
 1893Sol     MW10502   1.176   0.818   9.027 -0.4385 -0.8578 -0.0807
 1894Sol     OW10503   2.538   1.691   7.909 -0.2885  0.3678  0.0584
 1894Sol     HW10504   2.484   1.750   7.857 -0.3225  0.6578  0.4219
 1894Sol     HW10505   2.607   1.747   7.945 -1.9197  0.7874  2.7254
 1894Sol     MW10506   2.539   1.701   7.908 -0.3954 -0.3510 -0.0406
 1895Sol     OW10507   0.770   0.385   6.181  0.4030  0.0012  0.4859
 1895Sol     HW10508   0.820   0.439   6.241  0.3177  0.0471  0.5149
 1895Sol     HW10509   0.805   0.406   6.094  0.6084 -0.1527  0.5293
 1895Sol     MW10510   0.778   0.391   6.178 -0.3527 -0.1393 -0.5501
 1896Sol     OW10511   1.474   1.741   7.853 -0.6994  0.2179 -0.2441
 1896Sol     HW10512   1.498   1.738   7.945  1.3434 -0.1776 -0.7417
 1896Sol     HW10513   1.451   1.650   7.832 -0.2857  0.1266 -0.3201
 1896Sol     MW10514   1.474   1.732   7.859 -0.1885  0.0704 -0.0670
 1897Sol     OW10515   0.689   0.599   3.288  0.0462  0.3433  0.1230
 1897Sol     HW10516   0.676   0.664   3.219 -0.0819  0.6411  0.4182
 1897Sol     HW10517   0.744   0.532   3.249  0.0976  0.5845 -0.2217
 1897Sol     MW10518   0.693   0.599   3.279 -0.0528 -0.0302  0.2714
 1898Sol     OW10519   0.369   1.515   8.135  0.4216  0.1749 -1.2048
 1898Sol     HW10520   0.369   1.606   8.105  0.4359  0.8900  0.8959
 1898Sol     HW10521   0.278   1.497   8.156  0.9055  0.7795  1.5040
 1898Sol     MW10522   0.361   1.522   8.134  0.4273  0.6491 -0.1580
 1899Sol     OW10523   2.992   1.986   9.179  0.1095  0.0377 -0.4965
 1899Sol     HW10524   2.918   1.926   9.181  0.2531 -0.1878 -1.8708
 1899Sol     HW10525   3.055   1.947   9.118  0.3634  1.3709 -1.1276
 1899Sol     MW10526   2.991   1.977   9.174 -0.9211  0.0531  0.5240
 1900Sol     OW10527   1.282   2.397   7.914  0.0082 -0.1387  0.8969
 1900Sol     HW10528   1.209   2.379   7.854 -0.9443  0.0005  2.0069
 1900Sol     HW10529   1.307   2.311   7.948  0.7199 -0.2486  0.1172
 1900Sol     MW10530   1.278   2.387   7.911 -0.5215 -0.1889  0.5025
 1901Sol     OW10531   1.397   0.486   8.877  0.2776  0.6688 -0.6500
 1901Sol     HW10532   1.397   0.390   8.879 -3.3922  0.5932  1.9183
 1901Sol     HW10533   1.351   0.509   8.797 -0.8664  0.1782 -0.1552
 1901Sol     MW10534   1.393   0.479   8.870 -0.1269  0.2695 -0.0112
 1902Sol     OW10535   3.115   2.035   3.336  0.2944  0.1941  0.3813
 1902Sol     HW10536   3.153   1.949   3.320 -0.4358 -0.1735  0.6158
 1902Sol     HW10537   3.124   2.081   3.253  1.7302  0.2971  0.5849
 1902Sol     MW10538   3.119   2.032   3.328 -0.2500  0.5355  0.1750
 1903Sol     OW10539   2.551   2.505   8.732 -0.3827  0.5211 -0.0293
 1903Sol     HW10540   2.620   2.440   8.746  0.3461  0.8096 -2.0986
 1903Sol     HW10541   2.514   2.519   8.819  0.8697 -1.0784  0.8031
 1903Sol     MW10542   2.554   2.501   8.741  0.0843 -0.4794 -0.0146
 1904Sol     OW10543   2.396   1.888   7.790  0.6268  0.4373 -0.0364
 1904Sol     HW10544   2.309   1.882   7.828  1.2929 -0.6684  1.3767
 1904Sol     HW10545   2.383   1.878   7.696 -0.6945 -0.4013  0.2336
 1904Sol     MW10546   2.387   1.886   7.785 -1.0376 -0.8623  0.4579
 1905Sol     OW10547   0.005   1.641   6.806 -0.3204 -0.1292 -0.1303
 1905Sol     HW10548  -0.006   1.718   6.862  0.6051  1.4092 -2.0064
 1905Sol     HW10549   0.098   1.639   6.786 -0.5247 -1.1004 -1.0126
 1905Sol     MW10550   0.012   1.648   6.809  0.1030  0.3990 -0.0415
 1906Sol     OW10551   2.235   1.456   6.885  0.0248  0.1667 -0.2280
 1906Sol     HW10552   2.323   1.477   6.853  0.2819 -0.3777  0.1150
 1906Sol     HW10553   2.250   1.403   6.963 -0.5988  0.8668  0.3832
 1906Sol     MW10554   2.244   1.453   6.889  0.1545 -0.3104  0.2725
 1907Sol     OW10555   1.610   2.469   9.352 -0.0945  0.3270  0.0958
 1907Sol     HW10556   1.587   2.418   9.274  0.6549  0.2153 -0.0576
 1907Sol     HW10557   1.545   2.443   9.418 -0.6903  0.3725 -0.4678
 1907Sol     MW10558   1.602   2.462   9.351 -0.1939 -0.5096  0.1946
 1908Sol     OW10559   2.647   2.555   8.134  0.5108 -0.1422  0.0053
 1908Sol     HW10560   2.635   2.472   8.179 -2.1336  0.2621  0.1353
 1908Sol     HW10561   2.614   2.540   8.046  1.9505  0.1992 -0.6013
 1908Sol     MW10562   2.643   2.547   8.130  0.2437  0.1135 -0.5302
 1909Sol     OW10563   0.401   3.162   3.005  0.5790  0.2577  0.0062
 1909Sol     HW10564   0.356   3.141   2.923  1.1924 -1.9153  0.1853
 1909Sol     HW10565   0.435   3.250   2.992 -0.7810  0.5891 -1.4320
 1909Sol     MW10566   0.400   3.168   2.997 -0.5829 -0.6482 -0.4004
 1910Sol     OW10567   1.546   2.813   6.928  0.3314 -0.1702 -0.1141
 1910Sol     HW10568   1.552   2.899   6.971 -1.6673  0.2590 -0.6682
 1910Sol     HW10569   1.618   2.814   6.865  0.4604  1.0236  0.0327
 1910Sol     MW10570   1.553   2.821   6.926  0.1942  0.2755  0.5047
 1911Sol     OW10571   3.207   0.573   6.051 -0.1006 -0.1299 -0.4620
 1911Sol     HW10572   3.140   0.522   6.007 -1.6407 -0.1426  1.8049
 1911Sol     HW10573   3.204   0.659   6.010 -2.3430  0.2253  0.4052
 1911Sol     MW10574   3.201   0.576   6.043 -0.6594  0.2106 -0.1628
 1912Sol     OW10575   2.157   1.700   8.095 -0.0163 -0.1680  0.4342
 1912Sol     HW10576   2.225   1.634   8.083  1.0966  1.1733 -0.7195
 1912Sol     HW10577   2.084   1.652   8.135  0.8237 -2.0539 -0.2675
 1912Sol     MW10578   2.156   1.690   8.098 -0.1136 -0.4210 -0.3874
 1913Sol     OW10579   0.087   2.144   6.168  0.0896 -0.3991 -0.0558
 1913Sol     HW10580   0.157   2.161   6.105  0.6288 -0.3635  0.5534
 1913Sol     HW10581   0.007   2.163   6.119  0.5735  1.5538 -0.1704
 1913Sol     MW10582   0.086   2.148   6.158  0.3987 -0.0941 -0.0732
 1914Sol     OW10583   1.410   3.242   7.835 -0.1824  0.6755 -0.0437
 1914Sol     HW10584   1.383   3.266   7.923 -0.3644 -1.6314  0.5593
 1914Sol     HW10585   1.328   3.236   7.786 -0.2520  0.0430  0.1419
 1914Sol     MW10586   1.400   3.243   7.838 -0.1258  0.1151 -0.2872
 1915Sol     OW10587   1.851   0.009   8.972  0.1559 -0.0853 -0.6799
 1915Sol     HW10588   1.832   0.098   9.002  0.3764  0.0514 -0.9440
 1915Sol     HW10589   1.768  -0.038   8.982  0.4597 -0.2820  0.9813
 1915Sol     MW10590   1.841   0.013   8.975 -0.3031 -0.4185  0.2029
 1916Sol     OW10591   1.290   2.132   8.380 -0.0672 -0.0010  0.1882
 1916Sol     HW10592   1.380   2.107   8.402  0.6507 -1.9128 -4.3747
 1916Sol     HW10593   1.236   2.077   8.437  1.5895 -0.0804  1.7515
 1916Sol     MW10594   1.293   2.125   8.387 -0.1612  0.2427 -0.6529
 1917Sol     OW10595   0.111   0.741   9.552  0.0933 -0.4617 -0.6164
 1917Sol     HW10596   0.151   0.694   9.479  2.3494  1.3477 -0.5928
 1917Sol     HW10597   0.043   0.794   9.512  1.2447  0.4328 -1.4001
 1917Sol     MW10598   0.109   0.741   9.542 -0.0855  0.4026  0.8779
 1918Sol     OW10599   1.477   0.668   2.785 -0.2500 -0.0367  0.1995
 1918Sol     HW10600   1.526   0.668   2.867 -0.2043 -1.0819  0.1805
 1918Sol     HW10601   1.385   0.663   2.812 -0.2109 -0.8588  0.1734
 1918Sol     MW10602   1.473   0.668   2.795  0.0283 -0.2031  0.1293
 1919Sol     OW10603   0.026   1.892   2.226  0.4614  0.3872 -0.0841
 1919Sol     HW10604   0.009   1.966   2.167 -2.7195  1.4993  2.1096
 1919Sol     HW10605   0.053   1.821   2.168 -0.2421  2.1376 -2.6334
 1919Sol     MW10606   0.027   1.892   2.215  0.1841 -0.1950 -0.3553
 1920Sol     OW10607   1.275   0.144   5.755  0.6942  0.1064 -0.2422
 1920Sol     HW10608   1.299   0.213   5.694  1.5783 -0.7678 -0.9105
 1920Sol     HW10609   1.186   0.165   5.783  0.3795  0.6410 -1.6399
 1920Sol     MW10610   1.269   0.152   5.752  0.5655  0.4238  0.3412
 1921Sol     OW10611   3.290   1.989   9.433  0.3391 -0.1092  0.6706
 1921Sol     HW10612   3.276   1.908   9.385 -1.5461  0.9670 -0.6865
 1921Sol     HW10613   3.384   1.990   9.453  0.8202 -1.4426 -1.4248
 1921Sol     MW10614   3.297   1.982   9.430 -0.3434 -0.2689  0.3356
 1922Sol     OW10615   2.096   1.538   6.432 -0.6914 -0.4366 -0.3204
 1922Sol     HW10616   2.173   1.595   6.435  0.1074 -1.5464  0.3167
 1922Sol     HW10617   2.104   1.491   6.349  0.4761 -2.1568  0.7576
 1922Sol     MW10618   2.104   1.539   6.425 -0.0950 -0.0978 -0.0319
 1923Sol     OW10619   2.787   1.520   3.143 -0.0135 -0.3873  0.0924
 1923Sol     HW10620   2.788   1.450   3.077 -0.5413 -0.2085 -0.1010
 1923Sol     HW10621   2.741   1.592   3.102 -0.7655 -0.4363  0.8276
 1923Sol     MW10622   2.783   1.520   3.134  0.0408 -0.3438  0.0886
 1924Sol     OW10623   3.178   0.127   7.009 -0.0352 -0.3700 -0.3756
 1924Sol     HW10624   3.145   0.152   6.923 -0.4778  0.4347  0.0129
 1924Sol     HW10625   3.231   0.050   6.994 -0.0183 -0.1621 -1.3871
 1924Sol     MW10626   3.179   0.123   7.000 -0.0875 -0.0798  0.3402
 1925Sol     OW10627   0.846   1.956   9.879  0.2613 -0.0918 -0.2371
 1925Sol     HW10628   0.766   1.935   9.832 -1.0083 -1.5731  2.4698
 1925Sol     HW10629   0.821   2.027   9.938  1.0930 -0.1277  0.1709
 1925Sol     MW10630   0.836   1.960   9.880  0.2781 -0.5025  0.3451
 1926Sol     OW10631   2.436   2.887   1.838 -0.2259  0.4758 -0.1702
 1926Sol     HW10632   2.385   2.961   1.871 -2.3572  0.0725 -2.3548
 1926Sol     HW10633   2.384   2.810   1.862 -0.0623 -0.0324 -1.3976
 1926Sol     MW10634   2.426   2.887   1.843  0.8634  0.2895  0.4738
 1927Sol     OW10635   3.120   0.809   7.883 -0.2269 -0.5127  0.2306
 1927Sol     HW10636   3.076   0.874   7.827 -0.9330 -0.2400  1.0807
 1927Sol     HW10637   3.051   0.747   7.905 -0.5974  0.8001  2.8870
 1927Sol     MW10638   3.110   0.810   7.880  0.2572  0.1094  0.0629
 1928Sol     OW10639   2.606   1.486   9.841  0.1920  0.3756 -0.2823
 1928Sol     HW10640   2.512   1.482   9.855 -0.0710  0.8769 -1.7402
 1928Sol     HW10641   2.645   1.480   9.928 -1.0336 -3.7268  0.0635
 1928Sol     MW10642   2.601   1.485   9.850 -0.3137 -0.7639 -0.1730
 1929Sol     OW10643   2.367   1.091   3.995 -0.0351  0.2817 -0.4025
 1929Sol     HW10644   2.305   1.040   4.048 -0.2058 -1.1019 -1.9126
 1929Sol     HW10645   2.453   1.058   4.022 -0.1059 -0.1795 -0.7346
 1929Sol     MW10646   2.369   1.083   4.002 -0.7437  0.0547 -0.4844
 1930Sol     OW10647   2.464   1.063   9.022 -0.0776  0.0248 -0.6526
 1930Sol     HW10648   2.417   0.981   9.041 -1.4707  0.7423 -0.9771
 1930Sol     HW10649   2.518   1.078   9.100 -0.7465 -0.5550 -0.0715
 1930Sol     MW10650   2.465   1.057   9.031  0.1555  0.4000  0.0128
 1931Sol     OW10651   0.984   2.874   2.219  0.2832 -0.2022 -0.1832
 1931Sol     HW10652   0.901   2.918   2.203  0.3132 -0.2262 -0.4013
 1931Sol     HW10653   0.966   2.782   2.202  0.4715 -0.1504 -0.6706
 1931Sol     MW10654   0.975   2.870   2.216  0.2863  0.4207  0.4208
 1932Sol     OW10655   0.063   1.570   2.387 -0.3805 -0.3114  0.5229
 1932Sol     HW10656   0.079   1.636   2.455 -0.7031  1.4715 -1.0921
 1932Sol     HW10657   0.151   1.543   2.360 -0.2479 -1.0048  1.5969
 1932Sol     MW10658   0.072   1.574   2.391  0.6138 -0.2303 -0.2058
 1933Sol     OW10659   1.793   2.038   5.959  1.0180  0.1822  0.0627
 1933Sol     HW10660   1.752   2.079   5.882  1.2330 -0.8120 -0.5866
 1933Sol     HW10661   1.746   2.076   6.033 -2.1156 -1.9714 -0.6967
 1933Sol     MW10662   1.785   2.045   5.959  0.3162 -0.7688 -0.1436
 1934Sol     OW10663   0.208   1.297   8.846 -0.2092  0.3591 -0.0670
 1934Sol     HW10664   0.173   1.386   8.849 -0.5279  0.1825  1.6130
 1934Sol     HW10665   0.131   1.240   8.851  0.0671 -0.0183 -0.0698
 1934Sol     MW10666   0.198   1.300   8.847  0.6205  0.2457  0.4254
 1935Sol     OW10667   0.188   1.918   8.322  0.3379  0.0840 -0.4001
 1935Sol     HW10668   0.256   1.881   8.265  2.0010 -1.3323  2.3796
 1935Sol     HW10669   0.229   1.922   8.408 -2.2970  1.6455  0.8332
 1935Sol     MW10670   0.198   1.915   8.325  0.1831  0.1237 -0.3563
 1936Sol     OW10671   2.647   0.415   3.303  0.4689 -0.2132  0.3552
 1936Sol     HW10672   2.552   0.421   3.297  0.4232 -1.1478  0.1479
 1936Sol     HW10673   2.671   0.479   3.371 -0.1062  1.5112 -1.0219
 1936Sol     MW10674   2.641   0.421   3.309 -0.0783  0.6776  0.1001
 1937Sol     OW10675   1.996   1.108   6.762  0.3233  0.4237 -0.2787
 1937Sol     HW10676   2.081   1.065   6.749  0.8804  1.1896  0.7384
 1937Sol     HW10677   2.012   1.199   6.734  0.5420  1.1982  2.2473
 1937Sol     MW10678   2.005   1.112   6.758 -0.5631  0.2173 -0.4244
 1938Sol     OW10679   2.324   1.911   7.151  0.6176  0.5157  0.2435
 1938Sol     HW10680   2.414   1.905   7.120  0.6474  0.7243  0.2931
 1938Sol     HW10681   2.310   1.830   7.201  1.0734  0.9144  1.0245
 1938Sol     MW10682   2.331   1.903   7.153  0.1147 -0.9877 -0.2688
 1939Sol     OW10683   0.660   3.420   3.566 -0.3006  0.1344  0.3458
 1939Sol     HW10684   0.691   3.409   3.656  0.6905 -1.3021 -0.1574
 1939Sol     HW10685   0.723   3.371   3.512 -0.7633  1.1500 -1.1487
 1939Sol     MW10686   0.668   3.414   3.569 -0.4285  0.0859 -0.2113
 1940Sol     OW10687   2.970   1.772   7.081  0.2012 -0.1893 -0.2156
 1940Sol     HW10688   2.963   1.861   7.114 -2.0300  0.0696 -1.3236
 1940Sol     HW10689   2.926   1.718   7.147  0.7863 -0.3702  0.0290
 1940Sol     MW10690   2.965   1.775   7.089  0.3932  0.2795 -0.0709
 1941Sol     OW10691   2.620   3.201   5.362 -0.6498 -0.4266  0.2235
 1941Sol     HW10692   2.663   3.265   5.305  0.4497  0.4284  1.9605
 1941Sol     HW10693   2.665   3.119   5.343  2.1574  0.5382  2.3219
 1941Sol     MW10694   2.628   3.199   5.355  0.0036 -0.4736 -0.0149
 1942Sol     OW10695   2.641   3.294   9.076  0.0326 -0.3173  0.1737
 1942Sol     HW10696   2.687   3.376   9.094 -1.1832  0.8143 -1.6997
 1942Sol     HW10697   2.710   3.230   9.065  1.0367  0.6348  0.8215
 1942Sol     MW10698   2.651   3.296   9.076 -0.3374 -0.1860  0.8533
 1943Sol     OW10699   2.413   0.353   4.317  0.1455  0.0354 -0.2161
 1943Sol     HW10700   2.339   0.414   4.326  0.8526  0.7406  0.9630
 1943Sol     HW10701   2.378   0.269   4.345 -0.0397  0.5061  1.0031
 1943Sol     MW10702   2.403   0.351   4.320 -0.4135 -0.1184 -0.2852
 1944Sol     OW10703   2.319   3.091   6.608 -0.0522 -0.7358 -0.1804
 1944Sol     HW10704   2.349   3.102   6.518 -1.6958 -0.9831 -0.7753
 1944Sol     HW10705   2.239   3.143   6.613  0.2431 -0.4064  1.2551
 1944Sol     MW10706   2.315   3.097   6.600 -0.3728  0.1538 -0.2555
 1945Sol     OW10707   0.380   1.937   1.645  0.1591  0.7143  0.3460
 1945Sol     HW10708   0.467   1.908   1.673 -0.7486 -1.8656  0.7053
 1945Sol     HW10709   0.390   1.958   1.552  0.8958 -0.8954  0.0388
 1945Sol     MW10710   0.389   1.936   1.639  0.4281 -0.5518  0.0577
 1946Sol     OW10711   2.531   3.275   4.680 -0.3372  0.2038  0.4635
 1946Sol     HW10712   2.511   3.369   4.675 -0.0267  0.2105 -0.8574
 1946Sol     HW10713   2.545   3.249   4.589  0.1970 -0.9934  0.8826
 1946Sol     MW10714   2.530   3.281   4.672 -0.0022  0.3050 -0.3485
 1947Sol     OW10715   1.513   0.300   6.384 -0.1571 -0.2152 -0.3477
 1947Sol     HW10716   1.478   0.234   6.445 -0.5883  0.1164 -0.2343
 1947Sol     HW10717   1.567   0.357   6.439 -0.1426 -0.2106 -0.3663
 1947Sol     MW10718   1.515   0.299   6.395  0.2456  0.7670  0.3551
 1948Sol     OW10719   1.053   0.526   2.068 -0.1527 -0.2831  0.4168
 1948Sol     HW10720   0.977   0.573   2.036 -0.6270 -1.0730  0.3777
 1948Sol     HW10721   1.059   0.448   2.013  2.8689  1.5832 -2.0184
 1948Sol     MW10722   1.047   0.523   2.061 -0.2931 -0.0239 -0.0043
 1949Sol     OW10723   0.434   2.626   1.617 -0.4153 -0.4853 -0.8586
 1949Sol     HW10724   0.340   2.608   1.605 -0.6458 -0.7223  1.1748
 1949Sol     HW10725   0.439   2.722   1.623 -0.0044 -0.1559 -4.8896
 1949Sol     MW10726   0.426   2.633   1.617  0.4739 -0.2470  0.0246
 1950Sol     OW10727   2.234   0.761   8.330  0.3776  0.4030  0.0342
 1950Sol     HW10728   2.239   0.856   8.325  2.9696  0.2641 -0.8975
 1950Sol     HW10729   2.260   0.731   8.243  0.2284 -1.1744  0.5132
 1950Sol     MW10730   2.236   0.767   8.322  0.2713 -0.5807 -0.1629
 1951Sol     OW10731   2.815   0.946   2.922  0.0343 -0.2574  0.0783
 1951Sol     HW10732   2.723   0.923   2.935  0.3641 -1.1997  0.8309
 1951Sol     HW10733   2.851   0.952   3.011  0.6080  0.4994 -0.1999
 1951Sol     MW10734   2.810   0.944   2.931  0.6081 -0.0688 -0.8410
 1952Sol     OW10735   3.274   2.676   7.405  0.2043 -0.5570  0.0116
 1952Sol     HW10736   3.249   2.657   7.495 -0.4035 -1.7362 -0.4012
 1952Sol     HW10737   3.254   2.769   7.394  0.9730 -0.2313  1.3110
 1952Sol     MW10738   3.270   2.683   7.412  0.1091 -0.0256  0.1556
 1953Sol     OW10739   1.132   0.611   9.538  0.5860  0.1711  0.1075
 1953Sol     HW10740   1.074   0.680   9.572 -0.2387 -0.7380  0.5747
 1953Sol     HW10741   1.119   0.615   9.443  0.1595  0.3260  0.1666
 1953Sol     MW10742   1.126   0.618   9.533  0.2651 -0.3106  0.2356
 1954Sol     OW10743   0.520   1.570   9.013 -0.2499 -0.1419 -0.3592
 1954Sol     HW10744   0.449   1.505   9.013  0.1124 -0.6232 -3.1960
 1954Sol     HW10745   0.596   1.521   8.983  1.7182  0.0068  4.0996
 1954Sol     MW10746   0.520   1.560   9.010  0.3351  0.2342  0.5044
 1955Sol     OW10747   1.586   1.018   2.438 -0.2795 -0.2980 -0.3762
 1955Sol     HW10748   1.546   0.934   2.460 -0.5180 -0.2121 -0.4736
 1955Sol     HW10749   1.511   1.076   2.420 -0.1095 -0.1509 -0.6103
 1955Sol     MW10750   1.576   1.016   2.438 -0.0982  0.3640 -0.1638
 1956Sol     OW10751   0.122   0.452   3.235 -0.0543 -0.1249 -0.0763
 1956Sol     HW10752   0.215   0.456   3.254 -0.1382 -0.3409  0.3882
 1956Sol     HW10753   0.092   0.371   3.276 -0.9310  1.1924  1.9522
 1956Sol     MW10754   0.127   0.445   3.240  0.1371  0.2171  0.8392
 1957Sol     OW10755   1.104   0.031   3.721 -0.1054  0.1655  0.6727
 1957Sol     HW10756   1.035  -0.036   3.719  1.0225 -1.0159  0.4864
 1957Sol     HW10757   1.088   0.084   3.643 -1.2594  0.3742  1.0387
 1957Sol     MW10758   1.096   0.030   3.714  0.4525  0.5969  0.4858
 1958Sol     OW10759   0.890   2.607   9.413  0.1779  0.0795  0.2979
 1958Sol     HW10760   0.922   2.603   9.504 -1.5040 -1.6060  0.8350
 1958Sol     HW10761   0.900   2.700   9.389  2.2125  0.2457  1.6030
 1958Sol     MW10762   0.894   2.615   9.419  0.1721  0.3750 -0.3812
 1959Sol     OW10763   0.944   1.003   2.704  0.1067 -0.2004  0.1994
 1959Sol     HW10764   0.922   1.007   2.611  1.4597  0.3015 -0.1039
 1959Sol     HW10765   0.987   1.086   2.722 -0.9345  0.0644  1.4847
 1959Sol     MW10766   0.946   1.011   2.697  0.2819 -0.4045  0.2824
 1960Sol     OW10767   2.911   0.073   1.447  0.2450  0.1276 -0.9067
 1960Sol     HW10768   2.864   0.128   1.385  1.4183 -1.1505 -3.0090
 1960Sol     HW10769   2.947   0.135   1.511 -0.0654  1.6003 -2.1187
 1960Sol     MW10770   2.910   0.083   1.448  0.3670  0.2846  0.3377
 1961Sol     OW10771   2.978   0.861   3.521  0.6115 -0.5582 -0.1605
 1961Sol     HW10772   2.887   0.886   3.539  0.8165  0.2195 -0.1880
 1961Sol     HW10773   2.985   0.771   3.553  0.0722 -0.3218  0.6364
 1961Sol     MW10774   2.970   0.855   3.526 -0.0410  0.5286 -0.3306
 1962Sol     OW10775   1.111   0.193   4.122  0.6424 -0.1481  0.4815
 1962Sol     HW10776   1.106   0.288   4.111 -1.3229  0.3516  4.6926
 1962Sol     HW10777   1.065   0.158   4.046 -1.1949  2.4073  0.3420
 1962Sol     MW10778   1.106   0.198   4.115 -0.1774  0.4017  0.3226
 1963Sol     OW10779   1.224   3.154   5.923  0.3699 -0.0299 -0.0809
 1963Sol     HW10780   1.218   3.060   5.941  1.6518  0.2257  1.8553
 1963Sol     HW10781   1.162   3.194   5.983  0.1056  0.3964 -0.6347
 1963Sol     MW10782   1.218   3.149   5.930 -0.2523  0.6657  0.1325
 1964Sol     OW10783   1.656   0.336   2.033 -0.4503  0.4750  0.7046
 1964Sol     HW10784   1.589   0.404   2.024 -0.8757 -0.2595 -1.9919
 1964Sol     HW10785   1.608   0.254   2.030  0.5582 -0.0649 -1.5331
 1964Sol     MW10786   1.646   0.335   2.032 -0.2647  0.3696  0.5730
 1965Sol     OW10787   1.362   2.094   7.590  0.2601 -0.8162  0.9184
 1965Sol     HW10788   1.407   2.109   7.507  0.2234  2.0913  1.3909
 1965Sol     HW10789   1.338   2.001   7.587  0.1325 -0.7394 -2.3580
 1965Sol     MW10790   1.364   2.087   7.583  0.3010  0.5698  0.2489
 1966Sol     OW10791   0.696   1.343   3.571 -0.6767  0.1409 -0.5190
 1966Sol     HW10792   0.732   1.296   3.496  1.0682  2.9451 -1.5194
 1966Sol     HW10793   0.773   1.372   3.621 -1.7635 -0.1130  1.3501
 1966Sol     MW10794   0.706   1.342   3.569 -0.2487 -0.1464 -0.0318
 1967Sol     OW10795   1.618   1.230   5.461 -0.2902 -0.0373 -0.4825
 1967Sol     HW10796   1.650   1.309   5.505 -2.8844 -0.1421  1.7433
 1967Sol     HW10797   1.692   1.170   5.461  0.4879  0.8917  1.5547
 1967Sol     MW10798   1.627   1.232   5.465  0.5604 -0.1170  0.5140
 1968Sol     OW10799   1.098   1.179   3.438 -0.6044 -0.3018  0.7825
 1968Sol     HW10800   1.136   1.266   3.448 -0.2680 -0.1307 -1.6037
 1968Sol     HW10801   1.006   1.195   3.417 -0.2110 -0.4290 -1.1586
 1968Sol     MW10802   1.093   1.188   3.437 -0.7181  0.2838 -0.0182
 1969Sol     OW10803   1.578   0.891   1.863  0.4368  0.1894 -0.1034
 1969Sol     HW10804   1.496   0.871   1.908  0.6350  1.0910  0.6832
 1969Sol     HW10805   1.620   0.806   1.848 -1.1591 -0.3698 -1.5320
 1969Sol     MW10806   1.575   0.882   1.865 -0.4391 -0.0342 -0.3453
 1970Sol     OW10807   2.838   2.630   8.410  0.3105 -0.2699  0.3399
 1970Sol     HW10808   2.834   2.664   8.320  1.1761 -1.6288 -0.2370
 1970Sol     HW10809   2.791   2.695   8.462 -0.2491  0.5228 -1.1015
 1970Sol     MW10810   2.833   2.639   8.406  0.2945 -0.1634 -0.1745
 1971Sol     OW10811   1.741   2.592   8.162 -0.9468  0.3508  0.1393
 1971Sol     HW10812   1.645   2.582   8.162 -0.9503  0.3536 -0.4109
 1971Sol     HW10813   1.758   2.650   8.088 -0.2782 -2.0847 -1.6681
 1971Sol     MW10814   1.734   2.596   8.155  0.3565  0.1720 -0.2969
 1972Sol     OW10815   1.514   2.164   7.354  0.5130  0.0979  0.0669
 1972Sol     HW10816   1.515   2.111   7.274  0.6117  0.9405 -0.4991
 1972Sol     HW10817   1.589   2.222   7.344  0.4904  0.2436  0.7533
 1972Sol     MW10818   1.521   2.164   7.346 -0.1101  0.1598  0.1952
 1973Sol     OW10819   1.998   0.685   6.855  0.5536  0.1178  0.8760
 1973Sol     HW10820   1.952   0.769   6.847 -1.8562 -1.2505 -0.2080
 1973Sol     HW10821   1.932   0.624   6.887  2.4915 -1.2269  2.4613
 1973Sol     MW10822   1.988   0.687   6.857 -0.8457 -0.5622 -0.1222
 1974Sol     OW10823   1.506   0.774   2.531 -0.2538  0.1817  0.4116
 1974Sol     HW10824   1.576   0.714   2.505  0.4410  1.3763 -0.5632
 1974Sol     HW10825   1.495   0.761   2.625  0.9570 -0.3583  0.4768
 1974Sol     MW10826   1.511   0.768   2.537  0.1002 -0.1655  0.5854
 1975Sol     OW10827   0.589   2.710   7.175  0.1433  0.1850  0.1972
 1975Sol     HW10828   0.538   2.630   7.184  1.7184 -0.8098  0.4464
 1975Sol     HW10829   0.620   2.710   7.084  1.9847 -0.6459  0.7925
 1975Sol     MW10830   0.588   2.703   7.168 -0.6190 -0.3468 -0.8192
 1976Sol     OW10831   0.848   0.648   9.087  0.0828  0.2910  0.4576
 1976Sol     HW10832   0.834   0.740   9.109  0.5455 -0.0802  2.3858
 1976Sol     HW10833   0.760   0.610   9.084 -0.2056  1.0341 -1.5992
 1976Sol     MW10834   0.839   0.653   9.089 -0.5444 -0.2518  0.1750
 1977Sol     OW10835   3.087   0.233   9.536  0.6325  0.3090 -0.8709
 1977Sol     HW10836   3.065   0.313   9.584  1.1319  0.1312 -0.3345
 1977Sol     HW10837   3.002   0.197   9.509 -0.0284 -2.0040  3.7866
 1977Sol     MW10838   3.077   0.237   9.538  0.6067 -0.1003 -0.2525
 1978Sol     OW10839   0.389   3.423   4.785 -0.3731 -0.2102 -0.0590
 1978Sol     HW10840   0.324   3.485   4.752 -0.6640 -0.8778 -0.7567
 1978Sol     HW10841   0.420   3.377   4.707  0.4606 -0.3584  0.3523
 1978Sol     MW10842   0.386   3.425   4.775 -0.2789  0.6263 -0.3492
 1979Sol     OW10843   1.203   0.152   9.766 -0.4347  0.0052  0.4091
 1979Sol     HW10844   1.194   0.127   9.674 -0.4584  0.1028  0.3847
 1979Sol     HW10845   1.140   0.223   9.778  0.5818  0.9859  0.1237
 1979Sol     MW10846   1.197   0.156   9.759 -0.6081  0.2612 -0.1442
 1980Sol     OW10847   3.001   0.522   5.497  0.5568 -0.3200 -0.0396
 1980Sol     HW10848   3.047   0.442   5.473 -0.4459 -0.2133 -2.4164
 1980Sol     HW10849   3.058   0.593   5.465 -0.6597 -0.1723 -1.9323
 1980Sol     MW10850   3.011   0.521   5.492 -0.4183 -0.1848 -0.2095
 1981Sol     OW10851   0.123   1.996   9.109  0.2072  0.1571  0.9122
 1981Sol     HW10852   0.180   2.072   9.095  1.2208 -0.6624  0.5357
 1981Sol     HW10853   0.130   1.977   9.202 -2.1592  2.1658  1.5497
 1981Sol     MW10854   0.129   2.001   9.116 -0.6005 -0.0332  0.0720
 1982Sol     OW10855   0.188   1.569   8.791  0.0437  0.0850  0.3120
 1982Sol     HW10856   0.275   1.585   8.754  0.4098  1.5874  1.7610
 1982Sol     HW10857   0.127   1.598   8.723  0.6737 -0.4932 -0.5052
 1982Sol     MW10858   0.190   1.573   8.782 -0.0071  0.1215  0.5701
 1983Sol     OW10859   0.666   0.513   3.996 -0.4844 -0.4217  0.0094
 1983Sol     HW10860   0.623   0.429   3.981 -1.0571  0.1824 -1.9664
 1983Sol     HW10861   0.598   0.567   4.037 -0.7462 -0.3160 -0.5600
 1983Sol     MW10862   0.656   0.510   3.998  0.2015  0.5297 -0.2946
 1984Sol     OW10863   1.889   2.913   8.920 -0.1580 -0.1515  0.4333
 1984Sol     HW10864   1.823   2.968   8.964  1.3493  1.5160  0.6733
 1984Sol     HW10865   1.934   2.867   8.991  0.0541  0.0082  0.4033
 1984Sol     MW10866   1.887   2.914   8.930  0.0723 -0.1576 -0.3761
 1985Sol     OW10867   3.186   1.145   4.094  0.1331 -0.3515  0.3186
 1985Sol     HW10868   3.175   1.199   4.016 -0.0540 -1.3095 -0.3175
 1985Sol     HW10869   3.244   1.197   4.151 -1.5979  1.3877  0.5453
 1985Sol     MW10870   3.190   1.154   4.092 -0.2193 -0.5316  0.1233
 1986Sol     OW10871   0.288   1.155   7.691 -0.3127 -0.0180 -0.1441
 1986Sol     HW10872   0.257   1.096   7.622  2.2967 -0.4236 -0.9953
 1986Sol     HW10873   0.383   1.144   7.692 -0.1738  1.0105  2.6028
 1986Sol     MW10874   0.293   1.148   7.685  0.0340  0.5564  0.0094
 1987Sol     OW10875   1.881   2.099   3.370 -0.3373 -0.4368  0.2525
 1987Sol     HW10876   1.901   2.079   3.462 -1.0970  0.0871  0.5353
 1987Sol     HW10877   1.823   2.028   3.343  0.1439 -0.7673  0.0761
 1987Sol     MW10878   1.878   2.091   3.376 -0.3661 -0.0038 -0.2158
 1988Sol     OW10879   2.387   1.963   6.231  0.3886  0.3233 -0.1399
 1988Sol     HW10880   2.295   1.940   6.217  0.2925 -0.1219  1.1920
 1988Sol     HW10881   2.386   2.018   6.309  1.3601 -0.3752  0.3646
 1988Sol     MW10882   2.379   1.966   6.236 -0.0909  0.3087  0.3697
 1989Sol     OW10883   1.703   2.218   3.050 -0.3077 -0.5779  0.0571
 1989Sol     HW10884   1.670   2.224   3.140 -2.3293 -1.0821 -0.6278
 1989Sol     HW10885   1.647   2.276   3.000  1.1743  0.1318 -0.8078
 1989Sol     MW10886   1.695   2.223   3.054  0.0124  0.2598 -0.1574
 1990Sol     OW10887   0.456   2.472   7.162  0.0550  0.3973  0.3858
 1990Sol     HW10888   0.444   2.423   7.243 -1.1089 -2.6262 -1.5282
 1990Sol     HW10889   0.383   2.535   7.161 -1.3685 -1.2223  0.5375
 1990Sol     MW10890   0.448   2.474   7.169 -0.2073  0.1341  0.1500
 1991Sol     OW10891   0.937   0.451   5.964  0.3094 -1.0037 -0.1752
 1991Sol     HW10892   1.032   0.462   5.966  0.1580  0.2596  1.5006
 1991Sol     HW10893   0.903   0.534   5.931 -0.3049 -0.5375  1.5404
 1991Sol     MW10894   0.942   0.459   5.961  0.4682 -0.6948 -0.1130
 1992Sol     OW10895   0.064   0.743   8.211 -0.0271 -0.3480  0.4506
 1992Sol     HW10896  -0.009   0.684   8.230  0.2402 -0.9188 -0.2411
 1992Sol     HW10897   0.027   0.811   8.155  0.4514 -1.9522 -1.9153
 1992Sol     MW10898   0.054   0.744   8.207 -0.3176  0.0750  0.0213
 1993Sol     OW10899   2.551   0.447   9.845 -0.5645  0.2342 -0.7645
 1993Sol     HW10900   2.467   0.491   9.832 -0.9825  0.0514  1.2327
 1993Sol     HW10901   2.545   0.407   9.932  1.2777 -0.4702 -0.9283
 1993Sol     MW10902   2.543   0.448   9.852 -0.0993  0.1674 -0.1795
 1994Sol     OW10903   1.097   2.015   9.752 -0.4473  0.2463 -0.5251
 1994Sol     HW10904   1.017   1.974   9.784 -1.5570  1.0595 -2.2362
 1994Sol     HW10905   1.068   2.091   9.701  1.4597  1.3965  0.0184
 1994Sol     MW10906   1.087   2.018   9.750  0.1988  0.1237 -0.5462
 1995Sol     OW10907   0.779   1.836   9.560 -0.3556  0.1383  0.1973
 1995Sol     HW10908   0.745   1.894   9.492  1.1172  1.0665  0.2188
 1995Sol     HW10909   0.739   1.869   9.641 -1.8287 -0.7436 -0.1670
 1995Sol     MW10910   0.772   1.844   9.561  0.1848 -0.1301  0.3157
 1996Sol     OW10911   1.800   1.260   2.217 -0.6460  0.1755 -0.1979
 1996Sol     HW10912   1.859   1.198   2.260 -1.6410 -1.4671 -1.1805
 1996Sol     HW10913   1.854   1.299   2.147  0.0824  0.6878  0.6430
 1996Sol     MW10914   1.810   1.258   2.214  0.5195  0.4718  0.1900
 1997Sol     OW10915   2.642   2.478   4.849 -0.5101 -0.0149  0.2261
 1997Sol     HW10916   2.641   2.524   4.933 -1.5272  2.2131 -0.9394
 1997Sol     HW10917   2.730   2.491   4.815  0.0058 -1.2120  1.0896
 1997Sol     MW10918   2.650   2.483   4.854  0.0345  0.3955 -0.0858
 1998Sol     OW10919   2.183   2.812   6.039 -0.1588  0.1057 -0.3887
 1998Sol     HW10920   2.202   2.887   5.982 -0.4847 -0.6020 -1.4356
 1998Sol     HW10921   2.088   2.806   6.040 -0.1288 -0.4151 -0.4556
 1998Sol     MW10922   2.176   2.818   6.034  0.2398  0.2003  0.0258
 1999Sol     OW10923   1.718   2.515   3.477  0.0351 -0.3800  0.6934
 1999Sol     HW10924   1.793   2.523   3.418 -1.4390  0.0637 -1.1791
 1999Sol     HW10925   1.709   2.602   3.515 -0.7123  0.1298 -0.6023
 1999Sol     MW10926   1.724   2.524   3.475  0.2833  0.5153  0.4859
 2000Sol     OW10927   2.488   1.318   2.872 -0.1134  0.4283  0.1467
 2000Sol     HW10928   2.473   1.401   2.826 -0.1056  0.7348  0.6821
 2000Sol     HW10929   2.580   1.321   2.898 -0.1193  0.2637  0.1848
 2000Sol     MW10930   2.494   1.326   2.870  0.1136 -0.0418  0.1398
 2001Sol     OW10931   1.692   2.630   3.929  0.3161 -0.5526  0.0146
 2001Sol     HW10932   1.769   2.655   3.979  1.3756 -1.1009 -1.2861
 2001Sol     HW10933   1.618   2.641   3.989  1.4397 -0.2748  1.3568
 2001Sol     MW10934   1.692   2.633   3.938  0.1343  0.5151  0.0956
 2002Sol     OW10935   0.467   0.978   1.752 -0.0233  0.5753 -0.0034
 2002Sol     HW10936   0.514   1.055   1.720 -0.6007  0.9842  0.1262
 2002Sol     HW10937   0.430   1.005   1.836  1.2445 -0.4045  0.9021
 2002Sol     MW10938   0.468   0.987   1.757  0.0969 -0.2967  0.3551
 2003Sol     OW10939   1.812   2.639   9.305 -0.0022 -0.3449  0.2050
 2003Sol     HW10940   1.780   2.716   9.352 -1.1911 -0.1985 -0.8407
 2003Sol     HW10941   1.735   2.584   9.293  0.4785 -0.8288 -0.7269
 2003Sol     MW10942   1.803   2.641   9.308  0.7431  0.1195  0.2635
 2004Sol     OW10943   0.411   3.340   5.782  0.4100  0.0682 -0.4159
 2004Sol     HW10944   0.433   3.349   5.689  0.7393  2.3695 -0.1627
 2004Sol     HW10945   0.360   3.419   5.801  1.5143  0.2884  1.6757
 2004Sol     MW10946   0.408   3.348   5.775 -0.3428 -0.3033  0.3259
 2005Sol     OW10947   0.901   3.317   3.704  0.2762 -0.1033  0.1096
 2005Sol     HW10948   0.911   3.284   3.614  2.5015 -0.2733  0.3947
 2005Sol     HW10949   0.891   3.238   3.757 -0.2368 -0.0312  0.1312
 2005Sol     MW10950   0.901   3.307   3.700 -0.2095 -0.3014 -0.3302
 2006Sol     OW10951   0.278   2.843   9.093 -0.3103  0.3851 -0.2614
 2006Sol     HW10952   0.190   2.823   9.123 -0.4927  1.6370  0.0703
 2006Sol     HW10953   0.272   2.842   8.997 -0.5813  0.0132 -0.2382
 2006Sol     MW10954   0.270   2.842   9.087  0.0213  0.0701 -0.7328
 2007Sol     OW10955   1.767   1.078   4.736 -0.0211  0.3319 -0.4490
 2007Sol     HW10956   1.826   1.003   4.744 -0.2427  0.3611  1.6421
 2007Sol     HW10957   1.680   1.040   4.730  0.0403  0.3584 -1.6676
 2007Sol     MW10958   1.765   1.068   4.736  0.1447  0.2411  0.0718
 2008Sol     OW10959   0.690   3.328   4.803  0.5161 -0.4892 -0.2503
 2008Sol     HW10960   0.683   3.396   4.736  3.5104  1.0913  0.9741
 2008Sol     HW10961   0.626   3.354   4.870  1.2679  0.8324 -0.0353
 2008Sol     MW10962   0.683   3.336   4.803 -0.0909  0.5216 -0.0470
 2009Sol     OW10963   1.063   0.281   2.483  0.4217  0.1754 -0.3639
 2009Sol     HW10964   1.040   0.373   2.490 -0.1737 -0.1291  2.0974
 2009Sol     HW10965   1.018   0.251   2.404 -0.6207  1.6315 -0.3358
 2009Sol     MW10966   1.057   0.286   2.476 -0.1913  0.0339  0.0035
 2010Sol     OW10967   2.015   2.518   7.520  0.1551 -0.3672 -0.0280
 2010Sol     HW10968   2.013   2.484   7.609 -0.8759 -1.3674 -0.4128
 2010Sol     HW10969   2.107   2.517   7.496  0.3795 -0.6629  0.8220
 2010Sol     MW10970   2.023   2.515   7.526 -0.7115  0.3587 -0.3671
 2011Sol     OW10971   0.621   2.240   6.913  0.1259 -0.3642  0.7328
 2011Sol     HW10972   0.592   2.199   6.831  1.2790 -3.1794  1.6685
 2011Sol     HW10973   0.540   2.255   6.962 -0.2972 -2.1548  0.6245
 2011Sol     MW10974   0.611   2.237   6.910 -0.4149 -0.1113  0.3569
 2012Sol     OW10975   1.688   0.470   3.777  0.0659 -0.4018  0.0679
 2012Sol     HW10976   1.769   0.518   3.761 -0.7052  1.3815  1.3084
 2012Sol     HW10977   1.714   0.378   3.778  1.5067 -0.0658 -2.7893
 2012Sol     MW10978   1.698   0.467   3.776 -0.5505 -0.2140  0.3312
 2013Sol     OW10979   1.445   2.929   2.093  0.4183  0.2741 -0.3462
 2013Sol     HW10980   1.380   2.985   2.138  0.2592 -1.3234  1.4676
 2013Sol     HW10981   1.523   2.934   2.148  0.6804 -0.6160 -0.6293
 2013Sol     MW10982   1.446   2.935   2.102 -0.3788 -0.5001  0.2107
 2014Sol     OW10983   3.033   0.277   5.310  0.1611  0.1273 -0.1326
 2014Sol     HW10984   3.058   0.196   5.353  1.4906  0.8281  0.4618
 2014Sol     HW10985   3.114   0.310   5.271 -0.2054  1.4931  0.2040
 2014Sol     MW10986   3.042   0.273   5.311 -0.0604 -0.6286  0.0059
 2015Sol     OW10987   1.403   0.917   2.105 -0.1718  0.0116 -0.4964
 2015Sol     HW10988   1.314   0.886   2.125 -0.5247  0.1898 -1.7527
 2015Sol     HW10989   1.395   1.012   2.104  0.4870  0.1096  1.4024
 2015Sol     MW10990   1.394   0.923   2.107 -0.0657 -0.0103 -0.2766
 2016Sol     OW10991   0.301   2.171   5.459 -0.5336  0.1581 -0.0835
 2016Sol     HW10992   0.371   2.127   5.411  0.2444 -0.3127  1.4408
 2016Sol     HW10993   0.262   2.232   5.396  0.3273 -0.5877 -1.3446
 2016Sol     MW10994   0.304   2.173   5.449 -0.2137 -0.0262 -0.1679
 2017Sol     OW10995   0.432   1.265   6.533 -0.1787 -0.3657 -0.3070
 2017Sol     HW10996   0.483   1.275   6.614 -0.6212 -0.2470 -0.0395
 2017Sol     HW10997   0.446   1.174   6.507  0.6814 -0.1560 -0.5847
 2017Sol     MW10998   0.438   1.258   6.538  0.1878 -0.1317 -0.5142
 2018Sol     OW10999   2.344   2.128   8.834  0.3077 -0.1537 -0.3312
 2018Sol     HW11000   2.277   2.073   8.875  0.7499 -1.1081 -0.8496
 2018Sol     HW11001   2.296   2.202   8.798 -0.1614  0.3922  1.3886
 2018Sol     MW11002   2.334   2.129   8.835 -0.5377  0.0445 -0.0530
 2019Sol     OW11003   0.645   3.215   8.383  0.1668  0.0589  0.2838
 2019Sol     HW11004   0.701   3.154   8.335 -1.3376 -0.8951 -0.3097
 2019Sol     HW11005   0.572   3.162   8.413 -0.3612  1.2535  1.1503
 2019Sol     MW11006   0.643   3.205   8.381 -0.3096  0.3778  0.2619
 2020Sol     OW11007   0.309   2.941   6.391  0.2038  0.0816  0.0418
 2020Sol     HW11008   0.353   3.025   6.389  1.3305 -0.5143 -1.0635
 2020Sol     HW11009   0.315   2.908   6.301 -0.7440 -0.9070  0.3189
 2020Sol     MW11010   0.313   2.945   6.382 -0.1540  0.1858  0.3513
 2021Sol     OW11011   2.420   2.462   5.785 -0.3233 -0.0424 -0.0602
 2021Sol     HW11012   2.395   2.386   5.733  1.0053 -1.1910  0.9390
 2021Sol     HW11013   2.513   2.449   5.804 -0.4087  1.1304  1.2776
 2021Sol     MW11014   2.426   2.454   5.782  0.6128  0.0922 -0.0940
 2022Sol     OW11015   1.885   1.854   4.236 -0.0926 -0.1839 -0.6673
 2022Sol     HW11016   1.878   1.896   4.151  1.2789 -2.7951 -2.1155
 2022Sol     HW11017   1.917   1.766   4.218  2.3226 -0.1186  2.7151
 2022Sol     MW11018   1.887   1.850   4.227 -0.5502  0.0982 -0.1571
 2023Sol     OW11019   2.765   3.328   6.254  0.1403 -0.1394 -0.2385
 2023Sol     HW11020   2.857   3.347   6.273  0.0602 -0.6063  0.5811
 2023Sol     HW11021   2.718   3.407   6.281  0.5322  0.9669 -2.6434
 2023Sol     MW11022   2.769   3.337   6.258  0.0523  0.0692  0.5036
 2024Sol     OW11023   0.623   2.151   5.436 -0.0330 -0.4033 -0.4062
 2024Sol     HW11024   0.590   2.064   5.455 -1.2790  0.1105 -0.1275
 2024Sol     HW11025   0.621   2.158   5.340 -2.4319  0.2416 -0.3302
 2024Sol     MW11026   0.620   2.144   5.429 -0.2799  0.0353  0.4098
 2025Sol     OW11027   0.441   1.979   1.385  0.2095  0.3243 -0.2145
 2025Sol     HW11028   0.535   1.969   1.398  0.1227 -0.4883 -0.1828
 2025Sol     HW11029   0.428   2.072   1.368  0.6923  0.9640  2.6671
 2025Sol     MW11030   0.448   1.986   1.385  0.3035 -0.1258  0.2430
 2026Sol     OW11031   1.676   3.331   8.379  0.1043  0.6034 -1.0019
 2026Sol     HW11032   1.623   3.252   8.375  0.4943  0.4093 -3.6540
 2026Sol     HW11033   1.759   3.306   8.339  1.4806  1.4594  1.2360
 2026Sol     MW11034   1.678   3.322   8.375 -0.2383  0.4100 -0.8291
 2027Sol     OW11035   0.130   3.238   2.472 -0.0970  0.8060 -0.1094
 2027Sol     HW11036   0.107   3.193   2.553 -3.4995 -0.9416 -1.9537
 2027Sol     HW11037   0.115   3.331   2.491  0.8478  0.5992  1.7696
 2027Sol     MW11038   0.127   3.242   2.481  0.3172 -0.6854 -0.4411
 2028Sol     OW11039   1.705   1.449   5.580  0.2348  0.6470 -0.8779
 2028Sol     HW11040   1.800   1.447   5.569  0.8019 -0.7239  3.2595
 2028Sol     HW11041   1.692   1.447   5.675 -3.9376  1.2228 -1.3477
 2028Sol     MW11042   1.712   1.448   5.587  0.1445  0.0664 -0.7899
 2029Sol     OW11043   1.003   2.645   5.906  0.6909  0.1868 -0.1886
 2029Sol     HW11044   0.942   2.574   5.927  1.3413 -0.7608 -1.4315
 2029Sol     HW11045   0.975   2.676   5.820  0.4915  1.3634  0.2924
 2029Sol     MW11046   0.995   2.641   5.900 -0.2058 -0.0687 -0.1335
 2030Sol     OW11047   0.654   1.899   8.886  0.2174  0.5599  0.3534
 2030Sol     HW11048   0.680   1.841   8.814  1.0840  0.7675  0.4915
 2030Sol     HW11049   0.690   1.858   8.964 -0.6022  0.4133  0.6473
 2030Sol     MW11050   0.660   1.890   8.886  0.2852  0.2598 -0.1707
 2031Sol     OW11051   2.521   0.127   4.612 -0.2459  0.1838 -0.4742
 2031Sol     HW11052   2.513   0.160   4.702 -0.7019  0.5574 -0.6512
 2031Sol     HW11053   2.441   0.156   4.569  0.4985  0.9926 -1.3172
 2031Sol     MW11054   2.513   0.132   4.616 -0.3134  0.1084 -0.4061
 2032Sol     OW11055   1.680   3.191   7.994  0.1154  0.0914 -0.3598
 2032Sol     HW11056   1.749   3.181   8.059 -1.2096  0.5761  1.1451
 2032Sol     HW11057   1.645   3.102   7.983  0.9885 -0.1580 -1.1423
 2032Sol     MW11058   1.683   3.182   7.999 -0.3696 -0.3370 -0.4369
 2033Sol     OW11059   1.373   3.044   3.824 -0.0436 -0.1839 -0.1455
 2033Sol     HW11060   1.304   2.989   3.789  1.8772 -1.3840 -2.2030
 2033Sol     HW11061   1.342   3.133   3.812 -1.1048 -0.7005 -1.3215
 2033Sol     MW11062   1.364   3.047   3.820  0.2274 -0.1212  0.4097
 2034Sol     OW11063   0.892   2.050   3.210 -0.1535 -0.5222 -0.4785
 2034Sol     HW11064   0.920   2.119   3.269  2.0561 -1.8939  0.1021
 2034Sol     HW11065   0.948   2.060   3.133 -0.8010 -0.7887 -0.9929
 2034Sol     MW11066   0.899   2.057   3.208 -0.4755  0.2105  0.2373
 2035Sol     OW11067   2.099   1.447   3.832 -0.1207 -0.3109 -0.9032
 2035Sol     HW11068   2.162   1.510   3.867 -0.5489  0.2440 -1.1258
 2035Sol     HW11069   2.128   1.432   3.742  0.5424 -1.1645 -0.5454
 2035Sol     MW11070   2.107   1.452   3.827  0.0936 -0.7762  0.2497
 2036Sol     OW11071   2.717   3.069   6.364 -0.3559 -0.1693  0.5799
 2036Sol     HW11072   2.731   3.161   6.342  0.7512 -0.6152 -0.6675
 2036Sol     HW11073   2.623   3.061   6.377 -0.5975  0.8841 -0.4820
 2036Sol     MW11074   2.710   3.077   6.363 -0.2087  0.4106 -0.0126
 2037Sol     OW11075   0.968   1.778   8.988 -0.5925 -0.6657 -0.0177
 2037Sol     HW11076   0.983   1.766   8.894  0.2713 -0.4316  0.0924
 2037Sol     HW11077   1.047   1.820   9.020 -0.9745 -0.5504  0.7833
 2037Sol     MW11078   0.976   1.781   8.982  0.4655  0.0049  0.2723
 2038Sol     OW11079   0.600   1.104   3.716 -0.1465  0.0174  0.0152
 2038Sol     HW11080   0.629   1.089   3.806  0.1147 -3.1242 -0.5553
 2038Sol     HW11081   0.623   1.196   3.699  0.1587  0.5461  2.9890
 2038Sol     MW11082   0.605   1.111   3.723 -0.2844 -0.5673  0.7025
 2039Sol     OW11083   3.180   0.992   5.426 -0.0525 -0.0707  0.6560
 2039Sol     HW11084   3.249   1.032   5.479  1.0949 -0.0581 -0.8233
 2039Sol     HW11085   3.115   1.062   5.416  0.0164  0.1249  1.4904
 2039Sol     MW11086   3.180   1.002   5.430  0.2424  0.1478  0.3693
 2040Sol     OW11087   2.058   2.565   1.674  0.3181 -0.3924 -0.2727
 2040Sol     HW11088   2.075   2.536   1.585 -0.5849 -2.2457  0.1377
 2040Sol     HW11089   2.110   2.506   1.729  1.0069  0.8469  0.4293
 2040Sol     MW11090   2.064   2.557   1.671 -0.2365 -0.4501  0.4743
 2041Sol     OW11091   1.973   2.183   9.925 -0.2899 -0.0268  0.2747
 2041Sol     HW11092   1.905   2.230   9.878  0.8341  2.4219  0.9968
 2041Sol     HW11093   1.931   2.102   9.956 -1.8974 -0.1377 -2.1075
 2041Sol     MW11094   1.963   2.180   9.924  0.2651 -0.2948  0.1351
 2042Sol     OW11095   2.275   2.061   2.743  0.3747 -0.6116 -0.5322
 2042Sol     HW11096   2.268   2.095   2.654 -0.9203 -0.1782 -0.2836
 2042Sol     HW11097   2.223   1.980   2.742  0.3389 -0.5936 -0.1728
 2042Sol     MW11098   2.269   2.057   2.735  0.5584  0.0605  0.2787
 2043Sol     OW11099   3.002   3.203   7.061 -0.2521 -0.1837  0.1684
 2043Sol     HW11100   2.960   3.287   7.080 -0.7564 -0.8441  2.1224
 2043Sol     HW11101   2.930   3.140   7.056  0.2947 -0.9017  1.0977
 2043Sol     MW11102   2.992   3.205   7.062  0.1470  0.6919  0.1884
 2044Sol     OW11103   1.510   1.772   5.175  0.0469  0.1033  0.0181
 2044Sol     HW11104   1.604   1.787   5.183  0.3833 -1.7394 -0.1377
 2044Sol     HW11105   1.480   1.755   5.264  0.1516 -0.8448 -0.1252
 2044Sol     MW11106   1.516   1.772   5.183 -0.1209  0.0560 -0.2421
 2045Sol     OW11107   1.546   0.698   8.561  0.2728  0.3137 -0.0162
 2045Sol     HW11108   1.565   0.660   8.475 -0.4155 -0.1381  0.0323
 2045Sol     HW11109   1.455   0.725   8.556  0.4732  1.0631  0.2896
 2045Sol     MW11110   1.540   0.697   8.553 -0.1124  0.6399 -0.0678
 2046Sol     OW11111   2.222   3.350   2.227  0.1058  0.2285  0.1055
 2046Sol     HW11112   2.293   3.351   2.292  1.8902 -0.1671 -1.7750
 2046Sol     HW11113   2.226   3.436   2.187 -1.2051  0.5832  0.7218
 2046Sol     MW11114   2.229   3.358   2.230  0.1190  0.0474 -0.8379
 2047Sol     OW11115   0.493   2.596   6.279 -0.2048  0.6351 -0.2076
 2047Sol     HW11116   0.414   2.558   6.318 -0.6222  0.6690 -1.0063
 2047Sol     HW11117   0.463   2.677   6.238 -0.2055 -0.4733 -2.4686
 2047Sol     MW11118   0.483   2.600   6.279 -0.3540 -0.2352 -0.6875
 2048Sol     OW11119   1.511   0.941   8.766 -0.7778 -0.5566  0.3883
 2048Sol     HW11120   1.560   0.859   8.761  0.7507  0.2102  2.2784
 2048Sol     HW11121   1.514   0.977   8.677 -0.8587 -2.1932 -0.2880
 2048Sol     MW11122   1.515   0.937   8.758 -0.9034  0.1122  0.4781
 2049Sol     OW11123   2.852   0.763   6.963 -0.5201  0.0892 -0.4924
 2049Sol     HW11124   2.915   0.763   7.035  0.1087 -1.8111 -1.0040
 2049Sol     HW11125   2.846   0.671   6.936 -2.3979  0.4506 -1.4335
 2049Sol     MW11126   2.857   0.755   6.967 -0.1220 -0.1508  1.1916
 2050Sol     OW11127   1.100   1.964   8.480 -0.2403 -0.2748  0.2797
 2050Sol     HW11128   1.029   1.997   8.535  0.7942  0.1012  1.4326
 2050Sol     HW11129   1.118   1.876   8.514 -0.7896 -0.7546 -0.6436
 2050Sol     MW11130   1.096   1.959   8.488 -0.0547 -0.0033  0.5435
 2051Sol     OW11131   1.281   2.303   7.293  0.0325 -0.6818 -0.2734
 2051Sol     HW11132   1.304   2.394   7.274  0.0760 -0.5184  0.5421
 2051Sol     HW11133   1.366   2.260   7.305 -0.0302 -0.3443  1.5263
 2051Sol     MW11134   1.291   2.308   7.292  0.8155  0.2961 -0.6969
 2052Sol     OW11135   1.799   2.733   6.479  0.1444  0.0746  0.0341
 2052Sol     HW11136   1.768   2.771   6.561  1.4515  0.9341  0.1353
 2052Sol     HW11137   1.825   2.644   6.503 -0.1328  0.0950  0.4132
 2052Sol     MW11138   1.799   2.728   6.489  0.6397 -0.0954  0.1180
 2053Sol     OW11139   2.623   1.810   8.799 -0.3513 -0.2079  0.0782
 2053Sol     HW11140   2.532   1.808   8.771  0.1960  1.7264 -1.8918
 2053Sol     HW11141   2.627   1.883   8.861  0.0542  0.3219 -0.5681
 2053Sol     MW11142   2.615   1.816   8.802  0.2665 -0.2221 -0.1091
 2054Sol     OW11143   1.480   3.053   6.261 -0.4309 -0.2717  0.4698
 2054Sol     HW11144   1.488   2.958   6.255  0.9750 -0.1363 -0.1436
 2054Sol     HW11145   1.552   3.080   6.318  0.9012  0.6416 -1.5474
 2054Sol     MW11146   1.487   3.047   6.265 -0.1688 -0.2937  0.0507
 2055Sol     OW11147   2.605   1.009   2.629 -0.0633  0.0208 -0.2025
 2055Sol     HW11148   2.664   1.074   2.591 -0.1437 -0.1411 -0.6083
 2055Sol     HW11149   2.633   0.926   2.590 -0.3989 -0.0913 -0.2014
 2055Sol     MW11150   2.613   1.007   2.622 -0.5020 -0.0893 -0.3440
 2056Sol     OW11151   0.799   3.130   5.648  0.3300 -0.4262 -0.3348
 2056Sol     HW11152   0.887   3.167   5.657 -1.1131  3.0493  0.2262
 2056Sol     HW11153   0.761   3.137   5.736 -1.0150 -0.5685 -0.9011
 2056Sol     MW11154   0.804   3.134   5.657 -0.2869  0.4793  0.1838
 2057Sol     OW11155   1.272   0.768   2.413  0.1418  0.0598  0.2478
 2057Sol     HW11156   1.234   0.810   2.490  1.3317  3.1464 -0.7709
 2057Sol     HW11157   1.366   0.765   2.431  0.2566 -0.5752 -0.4386
 2057Sol     MW11158   1.277   0.772   2.421 -0.1809  0.0676  0.2022
 2058Sol     OW11159   0.034   2.209   3.808  0.8876  0.2992 -0.4249
 2058Sol     HW11160   0.102   2.177   3.749  1.0805  0.5392 -0.3344
 2058Sol     HW11161  -0.048   2.197   3.760  0.9579 -0.3747 -0.3692
 2058Sol     MW11162   0.033   2.205   3.799 -0.6650  0.1113 -0.2754
 2059Sol     OW11163   2.386   3.010   7.311 -0.0990 -0.4068  0.6319
 2059Sol     HW11164   2.474   3.048   7.311 -0.8081  1.3707 -1.7942
 2059Sol     HW11165   2.363   3.001   7.403  1.6317  1.4770  1.2707
 2059Sol     MW11166   2.392   3.012   7.319  0.4317 -0.3389  0.0845
 2060Sol     OW11167   2.698   0.823   5.120  0.1303  0.3562 -0.1214
 2060Sol     HW11168   2.691   0.746   5.176  1.0050  0.7951  0.6142
 2060Sol     HW11169   2.710   0.789   5.032  1.8865 -0.3548  0.3863
 2060Sol     MW11170   2.698   0.813   5.117  0.2856 -0.6952  0.1147
 2061Sol     OW11171   3.313   1.710   6.518 -0.4032  0.1234  0.5184
 2061Sol     HW11172   3.237   1.767   6.505 -0.4770 -0.1055 -0.0643
 2061Sol     HW11173   3.310   1.686   6.610 -0.7449  0.5337  0.6146
 2061Sol     MW11174   3.306   1.713   6.525  0.0568 -0.0041  0.8190
 2062Sol     OW11175   1.291   2.939   6.605  0.2734  0.4502 -0.1887
 2062Sol     HW11176   1.326   2.858   6.567  0.5182  0.8828 -0.8928
 2062Sol     HW11177   1.202   2.916   6.633 -0.2061  0.3408 -1.7663
 2062Sol     MW11178   1.286   2.929   6.604  0.8315 -0.6087 -0.6944
 2063Sol     OW11179   0.102   2.643   6.553 -0.2095 -0.0251 -0.3898
 2063Sol     HW11180   0.094   2.716   6.614  0.1032 -0.3154  0.0003
 2063Sol     HW11181   0.049   2.573   6.592 -1.9918  0.5555 -1.6466
 2063Sol     MW11182   0.096   2.643   6.562 -0.2046  0.1934  0.2465
 2064Sol     OW11183   0.649   2.715   3.909  0.0902  0.4890  0.1663
 2064Sol     HW11184   0.627   2.673   3.826 -1.4470 -2.5305  2.0096
 2064Sol     HW11185   0.734   2.677   3.934  0.0418  0.5943  0.4996
 2064Sol     MW11186   0.655   2.708   3.904 -0.1892 -0.1686  0.0939
 2065Sol     OW11187   1.920   0.652   3.682  0.0710 -0.1463  0.1985
 2065Sol     HW11188   1.950   0.628   3.595 -0.4509 -0.7098  0.1745
 2065Sol     HW11189   1.930   0.748   3.685 -0.0669 -0.1033 -0.5383
 2065Sol     MW11190   1.923   0.659   3.675  0.1473 -0.1242 -0.1066
 2066Sol     OW11191   2.911   0.654   3.154 -0.2097 -0.4699 -0.4399
 2066Sol     HW11192   2.954   0.611   3.080  0.1494 -0.6974 -0.1017
 2066Sol     HW11193   2.981   0.698   3.201 -0.2854 -1.1616  0.3309
 2066Sol     MW11194   2.921   0.654   3.151  0.4905 -0.6837 -0.2714
 2067Sol     OW11195   0.942   0.077   7.866 -0.0808  0.2075  1.0174
 2067Sol     HW11196   0.849   0.057   7.866  0.0209 -0.3009 -0.3285
 2067Sol     HW11197   0.947   0.172   7.870 -0.6935  0.3352 -0.9152
 2067Sol     MW11198   0.934   0.083   7.866 -0.2707  0.0413  0.8515
 2068Sol     OW11199   1.128   0.848   2.185  0.1662 -0.1540  0.1191
 2068Sol     HW11200   1.035   0.847   2.208  0.4199  1.2922  1.2860
 2068Sol     HW11201   1.172   0.819   2.265  0.9102  2.4991  0.7180
 2068Sol     MW11202   1.123   0.845   2.194  0.5274 -0.0987 -0.0442
 2069Sol     OW11203   3.307   0.031   1.603  0.2920 -0.3941 -0.2661
 2069Sol     HW11204   3.400   0.052   1.612  0.2147 -0.3573  0.4226
 2069Sol     HW11205   3.290   0.038   1.508  1.3811 -2.1125 -0.6016
 2069Sol     MW11206   3.313   0.034   1.595 -0.2990 -0.7898  0.1879
 2070Sol     OW11207   2.707   2.363   7.139 -0.5147  0.1007 -0.2379
 2070Sol     HW11208   2.762   2.331   7.210 -2.3215  0.6554  1.4722
 2070Sol     HW11209   2.620   2.326   7.157 -1.1652  0.8095 -1.7822
 2070Sol     MW11210   2.704   2.357   7.147  0.2761 -0.6940  0.2070
 2071Sol     OW11211   1.589   2.819   4.926 -0.2735 -0.0755 -0.5730
 2071Sol     HW11212   1.535   2.750   4.886  0.5428  0.2408 -2.2686
 2071Sol     HW11213   1.602   2.883   4.856  0.9923  0.6301  0.2822
 2071Sol     MW11214   1.585   2.818   4.916 -0.0802  0.3014 -0.1342
 2072Sol     OW11215   3.303   0.975   6.899  0.4087  0.0571 -0.4115
 2072Sol     HW11216   3.249   1.050   6.877 -0.4870 -0.4840 -0.0803
 2072Sol     HW11217   3.242   0.902   6.907  0.8875 -0.1374  2.1148
 2072Sol     MW11218   3.293   0.975   6.898  1.1301  0.2647  0.0814
 2073Sol     OW11219   3.071   0.926   9.880 -0.3537 -0.8030  0.1834
 2073Sol     HW11220   3.006   0.963   9.821 -2.3650 -0.9907  2.2446
 2073Sol     HW11221   3.048   0.833   9.886  1.2451 -1.2694 -0.5145
 2073Sol     MW11222   3.063   0.921   9.875 -0.4419 -0.4568 -0.0750
 2074Sol     OW11223   0.907   0.533   4.200  0.1170  0.4360 -0.1966
 2074Sol     HW11224   0.840   0.507   4.137 -0.6891  0.0054  0.8210
 2074Sol     HW11225   0.866   0.602   4.252  0.0060 -0.7500  1.2906
 2074Sol     MW11226   0.898   0.537   4.199 -0.5233 -0.1911 -0.1088
 2075Sol     OW11227   0.629   2.527   9.341 -0.6389 -0.1133 -0.1653
 2075Sol     HW11228   0.595   2.609   9.305  0.0061 -0.1699 -0.9230
 2075Sol     HW11229   0.718   2.548   9.370 -0.5307 -0.5021 -0.2052
 2075Sol     MW11230   0.634   2.536   9.341  0.2663  0.1846 -0.3061
 2076Sol     OW11231   0.869   2.004   5.626  0.0041 -0.2099  0.2358
 2076Sol     HW11232   0.853   1.948   5.550 -2.1830 -0.1242  0.6113
 2076Sol     HW11233   0.908   2.084   5.589 -0.0193 -0.6198 -0.6734
 2076Sol     MW11234   0.871   2.007   5.616 -0.0667  0.3997  0.0130
 2077Sol     OW11235   0.814   3.115   4.700  0.4530  0.2022  0.0843
 2077Sol     HW11236   0.759   3.124   4.622 -0.5560  0.6223  0.8301
 2077Sol     HW11237   0.778   3.179   4.761  1.3812  0.0273  0.8178
 2077Sol     MW11238   0.806   3.122   4.698 -0.2959  0.5990 -0.0484
 2078Sol     OW11239   0.688   2.565   3.037 -0.2109  0.1425 -0.1719
 2078Sol     HW11240   0.613   2.508   3.023  1.3088 -1.6383 -1.1930
 2078Sol     HW11241   0.731   2.571   2.952  0.4851  1.6341  0.2621
 2078Sol     MW11242   0.685   2.561   3.028 -0.1813 -0.7692  0.2105
 2079Sol     OW11243   1.250   1.653   9.158 -0.1659 -0.0567  0.0663
 2079Sol     HW11244   1.165   1.644   9.201 -0.7344  1.0050 -0.8170
 2079Sol     HW11245   1.251   1.744   9.127 -0.0300 -0.9751 -2.7059
 2079Sol     MW11246   1.242   1.661   9.159 -0.6449  0.4965 -0.4667
 2080Sol     OW11247   1.512   2.546   4.566 -0.0248 -0.0478  0.1303
 2080Sol     HW11248   1.502   2.621   4.508 -0.1189 -0.6583 -0.6547
 2080Sol     HW11249   1.451   2.481   4.532  1.7721 -1.3539 -0.6772
 2080Sol     MW11250   1.506   2.547   4.557 -0.5601 -0.4227 -0.0465
 2081Sol     OW11251   3.022   3.416   6.351  0.7335 -0.0361  0.1904
 2081Sol     HW11252   3.081   3.419   6.427  0.5032  0.8979  0.3387
 2081Sol     HW11253   3.050   3.489   6.296 -1.7330  1.8934  1.3737
 2081Sol     MW11254   3.030   3.423   6.353 -0.4566 -0.0766 -0.0565
 2082Sol     OW11255   1.356   3.174   8.512 -0.0424  0.8282  0.0265
 2082Sol     HW11256   1.299   3.187   8.436 -0.7076 -0.8681  0.2136
 2082Sol     HW11257   1.443   3.158   8.474  0.6139  4.4686 -0.2408
 2082Sol     MW11258   1.359   3.174   8.502 -0.0086 -0.1920 -0.5126
 2083Sol     OW11259   0.849   1.301   4.919  0.3229 -0.4638 -0.0528
 2083Sol     HW11260   0.926   1.315   4.865 -0.0221 -2.2414 -1.0422
 2083Sol     HW11261   0.839   1.206   4.924 -1.2866 -0.2823  0.8047
 2083Sol     MW11262   0.855   1.293   4.915 -0.0565  0.1483 -0.7335
 2084Sol     OW11263   2.073   1.759   5.202 -0.0866 -0.2043 -0.1891
 2084Sol     HW11264   2.118   1.802   5.275  1.9310  1.2893 -2.2223
 2084Sol     HW11265   2.082   1.665   5.220 -0.0325  0.1604  1.7183
 2084Sol     MW11266   2.078   1.754   5.210  0.1373  0.3146  0.1412
 2085Sol     OW11267   2.818   2.542   2.300 -0.0427 -0.1013 -0.4567
 2085Sol     HW11268   2.883   2.474   2.313  0.4638  1.1123  4.2238
 2085Sol     HW11269   2.868   2.619   2.274  0.2477  0.3598  1.4026
 2085Sol     MW11270   2.828   2.543   2.299  0.0181  0.6862 -0.5130
 2086Sol     OW11271   2.086   2.779   3.323 -0.1663 -0.2033  0.0568
 2086Sol     HW11272   2.051   2.809   3.407  0.2711  0.6923 -0.0683
 2086Sol     HW11273   2.180   2.766   3.339  0.0434  0.6194 -0.4524
 2086Sol     MW11274   2.091   2.781   3.332 -0.2538 -0.5081  0.1122
 2087Sol     OW11275   3.215   0.132   2.011  0.1645 -0.5730  0.4274
 2087Sol     HW11276   3.267   0.165   1.937  0.8705 -0.3852  1.0080
 2087Sol     HW11277   3.267   0.153   2.088 -1.0346  0.1168  1.0590
 2087Sol     MW11278   3.224   0.137   2.011  0.1690  0.5518  0.3093
 2088Sol     OW11279   0.161   0.469   6.046 -0.2762  0.0653 -0.2917
 2088Sol     HW11280   0.165   0.374   6.032 -0.7903  0.5756 -4.3235
 2088Sol     HW11281   0.072   0.484   6.078 -0.7857 -0.6067 -1.3678
 2088Sol     MW11282   0.154   0.462   6.048 -0.6503 -0.4182 -0.5304
 2089Sol     OW11283   2.850   0.583   6.066  0.1127  0.4793 -0.3457
 2089Sol     HW11284   2.831   0.676   6.053  0.2361  0.4104 -1.0102
 2089Sol     HW11285   2.813   0.563   6.152  0.5752  1.2746  0.0419
 2089Sol     MW11286   2.845   0.589   6.073  0.5822  0.2800  0.2821
 2090Sol     OW11287   1.580   2.315   9.121  0.0674 -0.0312 -0.1986
 2090Sol     HW11288   1.551   2.224   9.113  0.3943 -0.0860 -0.7539
 2090Sol     HW11289   1.565   2.352   9.034 -2.0797  1.0358  0.5680
 2090Sol     MW11290   1.576   2.310   9.112  0.0542  0.3693 -0.5148
 2091Sol     OW11291   1.246   3.006   8.731 -0.0364  0.1076  0.1398
 2091Sol     HW11292   1.269   3.092   8.696 -2.1904  1.1454  1.1896
 2091Sol     HW11293   1.270   3.011   8.824  1.8541 -1.2236 -0.2317
 2091Sol     MW11294   1.251   3.014   8.736  0.2606 -0.2535 -0.6881
 2092Sol     OW11295   2.254   1.630   3.971 -0.0195  0.4377  0.0182
 2092Sol     HW11296   2.281   1.704   4.025  0.2572 -0.0182  0.5147
 2092Sol     HW11297   2.304   1.556   4.006  0.4395  0.2085 -1.1119
 2092Sol     MW11298   2.261   1.630   3.979 -0.0453  0.0083 -0.2756
 2093Sol     OW11299   0.766   2.063   3.911  0.1954  0.4350  0.0212
 2093Sol     HW11300   0.755   2.070   3.816  0.0151  1.4719  0.1175
 2093Sol     HW11301   0.835   1.998   3.922  0.4412  0.5445 -0.8359
 2093Sol     MW11302   0.771   2.058   3.903 -0.1803 -0.0888 -0.4996
 2094Sol     OW11303   2.105   0.484   3.303  0.0012 -0.2800  0.0562
 2094Sol     HW11304   2.137   0.545   3.237  0.2985  1.1877  1.4985
 2094Sol     HW11305   2.021   0.522   3.331 -1.1203 -1.9925 -0.9306
 2094Sol     MW11306   2.100   0.493   3.300 -0.2197  0.4654  0.3053
 2095Sol     OW11307   1.007   1.094   3.758 -0.8902  0.2481 -0.4662
 2095Sol     HW11308   1.086   1.041   3.755 -0.6819  0.4565  0.8096
 2095Sol     HW11309   0.963   1.066   3.839 -0.8377  1.8916  0.1555
 2095Sol     MW11310   1.010   1.087   3.765 -0.0106 -0.0228 -0.3781
 2096Sol     OW11311   3.209   1.565   2.014 -0.7090 -0.4203 -0.2203
 2096Sol     HW11312   3.157   1.555   2.094 -1.3042  0.6601 -0.4627
 2096Sol     HW11313   3.300   1.569   2.044 -0.8079 -1.6230  0.2623
 2096Sol     MW11314   3.212   1.565   2.024 -0.2028 -0.2107 -0.5490
 2097Sol     OW11315   0.924   2.041   8.659 -0.7650  0.5042 -0.2858
 2097Sol     HW11316   0.831   2.036   8.634 -1.0196 -0.4447  0.8016
 2097Sol     HW11317   0.922   2.074   8.749  0.0368  1.9777 -0.7987
 2097Sol     MW11318   0.915   2.043   8.665  0.5069  0.3370  0.0070
 2098Sol     OW11319   0.540   3.223   3.836  0.1765  0.0165 -0.5335
 2098Sol     HW11320   0.466   3.256   3.784 -0.8014 -1.7487 -0.2761
 2098Sol     HW11321   0.565   3.141   3.794  1.9328  0.5271 -0.5385
 2098Sol     MW11322   0.536   3.219   3.828  0.7953  0.0591 -0.5929
 2099Sol     OW11323   0.819   1.469   7.374 -0.2509 -0.5283  0.0194
 2099Sol     HW11324   0.751   1.502   7.433  0.2893  0.3040  0.1785
 2099Sol     HW11325   0.825   1.375   7.395 -2.2010 -0.8777 -0.8516
 2099Sol     MW11326   0.813   1.463   7.381 -0.2151 -0.0486 -0.0669
 2100Sol     OW11327   2.893   1.582   7.268  0.2098  0.4206 -0.1755
 2100Sol     HW11328   2.926   1.496   7.243  0.8661  0.7777 -0.5619
 2100Sol     HW11329   2.830   1.565   7.338  0.8180 -0.3117  0.1962
 2100Sol     MW11330   2.890   1.573   7.272  0.3979 -0.1494 -0.3058
 2101Sol     OW11331   0.599   0.291   4.879  0.1336  0.4050 -0.2159
 2101Sol     HW11332   0.538   0.353   4.839 -1.3454 -1.7089 -1.3397
 2101Sol     HW11333   0.625   0.233   4.808  2.3554  0.3665  0.5738
 2101Sol     MW11334   0.596   0.291   4.869 -0.0457 -0.3496 -0.3629
 2102Sol     OW11335   0.376   1.412   4.437 -0.6198  0.1756  0.2390
 2102Sol     HW11336   0.433   1.447   4.505  1.3691 -1.5442 -0.4825
 2102Sol     HW11337   0.295   1.390   4.482 -0.0949  1.0568  1.6238
 2102Sol     MW11338   0.374   1.413   4.447  0.1577  0.2283 -0.4766
 2103Sol     OW11339   1.650   0.360   7.942 -0.0959  0.3614  0.6527
 2103Sol     HW11340   1.557   0.359   7.962  0.0433 -0.8936  1.2975
 2103Sol     HW11341   1.686   0.288   7.993  0.9291 -0.3577 -1.0510
 2103Sol     MW11342   1.645   0.354   7.948 -0.0411 -0.3514  0.1354
 2104Sol     OW11343   3.188   3.279   8.159  0.4452 -0.2899  0.3113
 2104Sol     HW11344   3.235   3.361   8.170  0.4636 -0.3198  0.4524
 2104Sol     HW11345   3.215   3.225   8.233 -0.7700  0.1517  1.0960
 2104Sol     MW11346   3.195   3.281   8.167  0.5491 -0.5588  0.3658
 2105Sol     OW11347   1.794   2.907   5.314 -0.8639 -0.8776 -0.2426
 2105Sol     HW11348   1.753   2.989   5.285 -0.4399 -0.1588  1.1350
 2105Sol     HW11349   1.803   2.855   5.234  0.9837  1.3493 -1.5733
 2105Sol     MW11350   1.791   2.910   5.304 -0.1852 -1.5186  0.2111
 2106Sol     OW11351   0.076   1.494   8.218 -0.1670  0.3156 -0.1274
 2106Sol     HW11352   0.009   1.552   8.180 -0.9932 -0.9208 -0.5733
 2106Sol     HW11353   0.114   1.545   8.290 -0.9186  1.3945 -0.4844
 2106Sol     MW11354   0.073   1.504   8.221  0.2979 -0.0852 -0.1689
 2107Sol     OW11355   2.616   1.566   6.928  0.0465  0.0826  1.0411
 2107Sol     HW11356   2.704   1.592   6.901 -0.2229  1.1725  1.2103
 2107Sol     HW11357   2.629   1.481   6.970  0.5083 -1.5501 -2.2149
 2107Sol     MW11358   2.625   1.560   6.929 -0.4387  0.1024  0.3121
 2108Sol     OW11359   2.528   1.369   8.681  0.3818  0.4278  0.0457
 2108Sol     HW11360   2.487   1.310   8.744 -0.1385  0.3925 -0.3259
 2108Sol     HW11361   2.468   1.444   8.675 -0.8999 -0.7093 -2.3223
 2108Sol     MW11362   2.519   1.371   8.686  0.3981 -0.2706 -0.4940
 2109Sol     OW11363   0.890   1.210   7.497 -0.6014 -0.1023 -0.0951
 2109Sol     HW11364   0.894   1.203   7.592 -1.1574  1.6414  0.0625
 2109Sol     HW11365   0.957   1.149   7.466  0.1129 -0.1135  1.4412
 2109Sol     MW11366   0.897   1.204   7.503  0.2708  0.1824  0.6028
 2110Sol     OW11367   1.061   2.042   6.771  0.5675 -0.2300 -0.0488
 2110Sol     HW11368   1.051   2.137   6.761  0.2703  0.2530  3.9784
 2110Sol     HW11369   1.150   2.030   6.804 -0.0533 -1.1610  1.3351
 2110Sol     MW11370   1.068   2.049   6.773 -0.6135 -0.0683 -0.1585
 2111Sol     OW11371   2.170   2.748   2.853 -0.1389  0.2085 -0.2705
 2111Sol     HW11372   2.189   2.823   2.909 -0.9479  1.1543 -1.2549
 2111Sol     HW11373   2.125   2.785   2.777 -0.3245 -1.2403 -0.8817
 2111Sol     MW11374   2.168   2.758   2.851 -0.0407  0.1980 -0.1265
 2112Sol     OW11375   1.493   2.887   2.806 -0.0358 -0.0914 -0.6459
 2112Sol     HW11376   1.545   2.861   2.730  1.0371 -2.3244  0.8100
 2112Sol     HW11377   1.528   2.836   2.879 -0.5650  2.4818  1.5402
 2112Sol     MW11378   1.501   2.880   2.806 -0.8231 -0.3177  0.6128
 2113Sol     OW11379   2.174   0.747   2.635  0.3746  0.2126 -0.2483
 2113Sol     HW11380   2.129   0.780   2.557  0.7059  0.4840 -0.3253
 2113Sol     HW11381   2.182   0.823   2.692  0.3796  0.0747 -0.0642
 2113Sol     MW11382   2.171   0.757   2.633  0.1754 -0.0703 -0.3026
 2114Sol     OW11383   3.084   3.177   2.510 -0.1051  0.3577  0.3211
 2114Sol     HW11384   3.148   3.193   2.440 -0.8096 -0.7249 -0.5834
 2114Sol     HW11385   3.015   3.242   2.495  0.5986  1.2924  1.0841
 2114Sol     MW11386   3.084   3.184   2.502 -0.3619  0.0336  0.2068
 2115Sol     OW11387   2.720   0.398   7.320  0.0347 -0.1176  0.3354
 2115Sol     HW11388   2.685   0.320   7.277 -0.5103  0.5517 -0.4530
 2115Sol     HW11389   2.802   0.369   7.359  0.5363 -0.7443 -1.1557
 2115Sol     MW11390   2.724   0.388   7.320 -0.5950  0.1672 -0.6451
 2116Sol     OW11391   0.979   2.614   8.586  0.6039 -0.1037 -0.1823
 2116Sol     HW11392   0.925   2.586   8.660 -0.6225  0.1845 -0.9595
 2116Sol     HW11393   1.043   2.543   8.576 -0.6779 -1.2783 -0.3108
 2116Sol     MW11394   0.980   2.605   8.592 -0.2369 -0.0528  0.3413
 2117Sol     OW11395   2.027   2.186   6.870 -0.0482  0.7149  0.3368
 2117Sol     HW11396   2.029   2.254   6.938  1.7221  0.0700  0.9663
 2117Sol     HW11397   2.084   2.117   6.904 -0.6507 -0.4393 -0.9723
 2117Sol     MW11398   2.033   2.186   6.879 -0.1204  0.5628 -0.1641
 2118Sol     OW11399   0.653   2.538   5.419 -0.0695 -0.1723 -0.1559
 2118Sol     HW11400   0.598   2.467   5.385 -0.1607 -0.2747  0.2095
 2118Sol     HW11401   0.701   2.498   5.492 -1.3274  0.5856  1.1038
 2118Sol     MW11402   0.653   2.528   5.422 -0.2813 -0.4914  0.1148
 2119Sol     OW11403   3.234   0.001   9.892 -0.3255  0.3918  0.3645
 2119Sol     HW11404   3.226   0.077   9.834 -0.8188 -0.2785 -0.4541
 2119Sol     HW11405   3.146  -0.036   9.895 -0.1359 -0.0130  0.9547
 2119Sol     MW11406   3.226   0.005   9.887 -0.2755 -0.1148  0.0756
 2120Sol     OW11407   0.094   3.206   7.112 -0.3312 -0.2290  0.0947
 2120Sol     HW11408   0.144   3.139   7.066  1.5041  1.2509 -0.1336
 2120Sol     HW11409   0.079   3.274   7.046  3.1757  2.3624  1.8192
 2120Sol     MW11410   0.097   3.206   7.102 -0.0827 -0.0572 -0.2381
 2121Sol     OW11411   3.028   1.349   7.167 -0.3839 -0.0729  0.4141
 2121Sol     HW11412   3.068   1.281   7.223  0.5560  0.4309  0.3559
 2121Sol     HW11413   3.101   1.386   7.118 -0.7937  1.4523  0.9383
 2121Sol     MW11414   3.038   1.346   7.168  0.0561  0.0492  0.2379
 2122Sol     OW11415   1.272   3.406   6.233  0.6194  0.1502  0.5096
 2122Sol     HW11416   1.351   3.355   6.217  0.3862 -0.1763  0.4028
 2122Sol     HW11417   1.206   3.342   6.259 -0.0412  0.2335 -0.9212
 2122Sol     MW11418   1.273   3.396   6.234 -0.6779 -0.2142 -0.5738
 2123Sol     OW11419   1.261   1.712   4.358  0.2225 -0.0129 -0.3563
 2123Sol     HW11420   1.323   1.784   4.367  0.6710 -0.5685  1.2583
 2123Sol     HW11421   1.176   1.754   4.354  0.5171  0.6390  0.0970
 2123Sol     MW11422   1.259   1.722   4.358  0.2040  0.4067 -0.0067
 2124Sol     OW11423   0.090   0.194   3.329 -0.6750  0.6482 -0.2519
 2124Sol     HW11424   0.122   0.113   3.289  0.4095  0.7016  0.4873
 2124Sol     HW11425   0.129   0.194   3.416  2.0701  3.6111 -1.3899
 2124Sol     MW11426   0.096   0.187   3.333 -0.1332 -0.1363  0.2242
 2125Sol     OW11427   2.964   0.369   4.556 -0.0498 -0.2646 -0.0926
 2125Sol     HW11428   2.968   0.341   4.648  0.2535  1.9016  0.5706
 2125Sol     HW11429   2.876   0.345   4.528  0.0446 -1.4712  0.5732
 2125Sol     MW11430   2.956   0.364   4.562 -1.0178 -0.4199  0.2357
 2126Sol     OW11431   1.955   1.170   9.205  0.2003  0.3352  0.6187
 2126Sol     HW11432   1.949   1.172   9.301  2.1445  0.3413  0.7584
 2126Sol     HW11433   1.883   1.113   9.178  0.0255 -0.1839  2.1157
 2126Sol     MW11434   1.948   1.165   9.211 -0.5162  0.1496 -0.3857
 2127Sol     OW11435   1.236   0.675   5.360 -0.8332 -0.8175 -0.2057
 2127Sol     HW11436   1.300   0.616   5.320  1.0960  0.5537  0.7938
 2127Sol     HW11437   1.200   0.625   5.433  2.2181 -0.1363  1.8547
 2127Sol     MW11438   1.239   0.665   5.363 -0.4303 -0.3914  0.9014
 2128Sol     OW11439   1.418   0.146   7.312  0.5150 -0.2824  0.1239
 2128Sol     HW11440   1.473   0.136   7.234 -0.4102 -2.2693 -0.3124
 2128Sol     HW11441   1.466   0.207   7.368  2.0871 -0.2718 -1.1976
 2128Sol     MW11442   1.427   0.150   7.310 -0.2022 -0.4727  0.1882
 2129Sol     OW11443   3.162   2.301   8.583  0.0445  0.1152 -0.2601
 2129Sol     HW11444   3.252   2.331   8.592 -0.3305  1.1238  0.1393
 2129Sol     HW11445   3.167   2.225   8.525  0.8134  1.7784 -2.3870
 2129Sol     MW11446   3.170   2.297   8.579  0.3917  0.6259 -0.1917
 2130Sol     OW11447   0.621   2.412   8.364 -0.1576 -0.1078  0.3058
 2130Sol     HW11448   0.626   2.452   8.277  1.9495 -0.5232  0.2218
 2130Sol     HW11449   0.601   2.485   8.422 -0.9434  0.2801 -0.4399
 2130Sol     MW11450   0.619   2.422   8.361 -0.2634 -0.4083 -0.3804
 2131Sol     OW11451   0.815   0.552   1.653 -0.1630  0.2311  0.2702
 2131Sol     HW11452   0.894   0.498   1.649  0.6172  1.3552  0.2573
 2131Sol     HW11453   0.791   0.564   1.561 -0.4939 -0.3102  0.2829
 2131Sol     MW11454   0.820   0.548   1.644 -0.2641 -0.8280 -0.3328
 2132Sol     OW11455   2.166   2.226   3.706 -0.3543  0.5874 -0.3664
 2132Sol     HW11456   2.211   2.310   3.700 -0.6301  0.8325  0.8195
 2132Sol     HW11457   2.118   2.230   3.789 -1.0583 -0.4017 -0.7144
 2132Sol     MW11458   2.166   2.234   3.713 -0.0782  0.1768 -0.2065
 2133Sol     OW11459   0.822   0.028   5.276  0.5406  0.2586 -0.0054
 2133Sol     HW11460   0.795   0.032   5.184  1.4783  0.5211 -0.2734
 2133Sol     HW11461   0.750   0.067   5.325 -0.1898 -0.3592 -0.5852
 2133Sol     MW11462   0.814   0.032   5.272  0.3958  0.5014  0.2701
 2134Sol     OW11463   3.314   3.111   9.282 -0.0833  0.0668 -0.1699
 2134Sol     HW11464   3.309   3.080   9.372 -2.4643  0.1559 -0.2539
 2134Sol     HW11465   3.302   3.032   9.229 -0.9472  0.3505 -0.4004
 2134Sol     MW11466   3.313   3.101   9.285 -0.0658 -0.6863  0.6195
 2135Sol     OW11467   2.430   2.517   4.690  0.1953 -0.6524  0.4499
 2135Sol     HW11468   2.508   2.519   4.745  0.7190  5.5657 -0.1720
 2135Sol     HW11469   2.461   2.544   4.603 -2.1592 -1.1192 -0.5855
 2135Sol     MW11470   2.440   2.519   4.687  0.1709 -0.0968  0.6753
 2136Sol     OW11471   1.294   3.101   4.735 -0.0104 -0.2836  0.6916
 2136Sol     HW11472   1.210   3.133   4.702 -0.0196 -0.1000  0.8867
 2136Sol     HW11473   1.272   3.023   4.786 -0.0610 -0.2497  0.7221
 2136Sol     MW11474   1.285   3.097   4.737 -0.6899 -0.3615 -0.1425
 2137Sol     OW11475   1.922   1.682   8.256  0.5126  0.0730  0.3120
 2137Sol     HW11476   1.913   1.652   8.346  2.6741  0.0022  0.5486
 2137Sol     HW11477   1.928   1.778   8.263  0.6837  0.0671  0.2623
 2137Sol     MW11478   1.922   1.688   8.265  0.3777  0.0041  0.0049
 2138Sol     OW11479   2.257   1.144   5.862  0.5129 -0.0640 -0.1024
 2138Sol     HW11480   2.291   1.142   5.772 -2.1343  0.6177 -1.1696
 2138Sol     HW11481   2.294   1.066   5.903  1.0497 -0.8728 -2.0432
 2138Sol     MW11482   2.264   1.137   5.857 -0.3514 -0.0718  0.1417
 2139Sol     OW11483   1.784   2.220   1.342 -0.1773  0.6611  0.0496
 2139Sol     HW11484   1.793   2.139   1.293 -1.0434  0.4890  0.1765
 2139Sol     HW11485   1.861   2.222   1.399  0.7211  0.7666 -1.1475
 2139Sol     MW11486   1.792   2.213   1.343  0.0518  0.6219 -0.5533
 2140Sol     OW11487   0.115   1.646   9.052  0.0022 -0.1096  0.4776
 2140Sol     HW11488   0.142   1.631   8.961  2.4942 -0.7402  1.2905
 2140Sol     HW11489   0.158   1.727   9.077 -1.2065  0.4117  0.9144
 2140Sol     MW11490   0.121   1.652   9.046  0.5496 -0.1428 -0.2499
 2141Sol     OW11491   0.718   1.608   1.799  0.7495  0.4848  0.4163
 2141Sol     HW11492   0.636   1.562   1.784  1.3246 -0.7078  0.8214
 2141Sol     HW11493   0.762   1.557   1.868  1.7346  1.2125  0.3469
 2141Sol     MW11494   0.715   1.599   1.804  0.8383  0.2435 -0.6124
 2142Sol     OW11495   3.040   0.356   8.559  0.1177 -0.3837 -0.0067
 2142Sol     HW11496   3.029   0.280   8.501 -0.0046  0.1856 -0.7456
 2142Sol     HW11497   3.127   0.390   8.538  0.5063 -0.7980  0.9073
 2142Sol     MW11498   3.047   0.352   8.552 -0.4416  0.1865 -0.3573
 2143Sol     OW11499   3.073   1.127   3.553  0.0041  0.3190  0.1973
 2143Sol     HW11500   3.043   1.167   3.471  0.8621 -1.3993 -1.0052
 2143Sol     HW11501   3.087   1.035   3.530  0.7684 -0.0679  2.1518
 2143Sol     MW11502   3.072   1.122   3.543 -0.2176  0.2236  0.6949
 2144Sol     OW11503   1.842   1.532   7.828  0.0094  0.3561 -0.3096
 2144Sol     HW11504   1.930   1.498   7.815  0.2456  0.5678  0.6697
 2144Sol     HW11505   1.784   1.466   7.789  0.4656 -1.1069  1.3772
 2144Sol     MW11506   1.845   1.523   7.824 -0.3561  0.2357 -0.5964
 2145Sol     OW11507   2.921   0.713   2.857  0.5009 -0.5581 -0.0422
 2145Sol     HW11508   2.907   0.705   2.763  2.0282 -0.2498 -0.3089
 2145Sol     HW11509   2.877   0.794   2.881 -2.4177 -2.1275  0.0554
 2145Sol     MW11510   2.916   0.720   2.851 -0.4740 -0.6449 -0.0760
 2146Sol     OW11511   1.705   1.256   9.396 -0.3552  0.3127 -0.5740
 2146Sol     HW11512   1.787   1.211   9.415 -1.0901 -1.2107 -0.8872
 2146Sol     HW11513   1.713   1.341   9.440  1.1264 -0.0547 -0.0938
 2146Sol     MW11514   1.713   1.259   9.402  0.5562  0.3237  0.3446
 2147Sol     OW11515   0.595   0.272   3.263 -0.6970  0.2918 -0.1099
 2147Sol     HW11516   0.553   0.246   3.181 -0.0490 -0.9206 -0.0657
 2147Sol     HW11517   0.555   0.215   3.329  3.0103 -2.9633 -0.4784
 2147Sol     MW11518   0.587   0.264   3.262  0.3213 -0.1642 -0.0417
 2148Sol     OW11519   1.060   1.282   9.310  0.1615 -0.3219  0.6284
 2148Sol     HW11520   1.107   1.203   9.337  1.2893 -0.2058 -0.9627
 2148Sol     HW11521   1.056   1.277   9.215 -1.4827  0.5780  0.6239
 2148Sol     MW11522   1.064   1.274   9.304 -0.0176  0.2329  0.4449
 2149Sol     OW11523   2.219   0.603   2.286 -0.6876 -0.0367 -0.5130
 2149Sol     HW11524   2.165   0.671   2.325 -0.3438  0.0764 -0.2273
 2149Sol     HW11525   2.297   0.649   2.255  0.5225 -0.6020  1.6095
 2149Sol     MW11526   2.221   0.613   2.286  0.1216  0.0104 -0.2351
 2150Sol     OW11527   1.908   0.814   5.430 -0.5232  0.1766 -0.4273
 2150Sol     HW11528   1.820   0.777   5.440 -0.5814  0.9130  2.3062
 2150Sol     HW11529   1.966   0.738   5.429 -0.9750 -0.2014  0.9235
 2150Sol     MW11530   1.905   0.804   5.431 -0.0604 -0.1439  0.1367
 2151Sol     OW11531   2.665   2.804   4.561  0.5547 -0.0560  0.2129
 2151Sol     HW11532   2.722   2.839   4.630 -0.5721 -0.4357  1.3590
 2151Sol     HW11533   2.672   2.867   4.490  0.5092  1.1922  1.2889
 2151Sol     MW11534   2.671   2.813   4.561 -0.2201 -0.5908  0.0882
 2152Sol     OW11535   1.903   1.104   6.192  0.6840  0.1186  0.4026
 2152Sol     HW11536   1.977   1.054   6.157  0.5670  0.2009  0.0343
 2152Sol     HW11537   1.939   1.192   6.207  0.8912 -0.0796  1.0574
 2152Sol     MW11538   1.913   1.108   6.190 -0.3180  0.1941 -0.1665
 2153Sol     OW11539   2.745   3.396   7.339 -0.3147  0.3791  0.1247
 2153Sol     HW11540   2.788   3.377   7.422 -1.5705 -1.2251  0.4372
 2153Sol     HW11541   2.688   3.470   7.358  1.3179  1.6899  0.0248
 2153Sol     MW11542   2.744   3.401   7.348 -0.0712  0.2841 -0.4359
 2154Sol     OW11543   0.498   2.034   1.912 -0.1946  0.4470  0.5702
 2154Sol     HW11544   0.537   2.120   1.901  0.7971  0.0109  0.6771
 2154Sol     HW11545   0.548   1.976   1.854 -0.8827 -0.0498  0.4574
 2154Sol     MW11546   0.506   2.036   1.905  0.2828 -0.0513 -0.6250
 2155Sol     OW11547   0.479   2.939   5.785 -0.5677 -0.3052  0.0724
 2155Sol     HW11548   0.562   2.945   5.738 -0.8188 -0.8325 -0.4372
 2155Sol     HW11549   0.412   2.949   5.717 -0.9286  0.5516  0.5382
 2155Sol     MW11550   0.481   2.941   5.775 -0.3597 -0.4373  0.2431
 2156Sol     OW11551   0.730   0.986   8.694 -0.1929 -0.2608  0.0944
 2156Sol     HW11552   0.640   1.017   8.695  0.3962  1.6189 -1.1344
 2156Sol     HW11553   0.738   0.935   8.613 -1.0050 -3.2595  1.8337
 2156Sol     MW11554   0.723   0.985   8.687  0.4207  0.3281  0.3538
 2157Sol     OW11555   1.021   2.946   3.912  0.4265 -0.3196 -0.0293
 2157Sol     HW11556   1.006   2.897   3.992  0.4575 -0.4077 -0.0770
 2157Sol     HW11557   0.992   3.035   3.932  2.8895  0.3118  0.9447
 2157Sol     MW11558   1.017   2.950   3.921 -0.0188  0.4371 -0.4011
 2158Sol     OW11559   1.264   3.158   6.413 -0.2632 -0.4098  0.3242
 2158Sol     HW11560   1.277   3.100   6.488  1.4645  0.9796  1.1200
 2158Sol     HW11561   1.330   3.131   6.349  0.4059  0.5226  0.6114
 2158Sol     MW11562   1.271   3.151   6.414  0.0801  0.1890  0.5065
 2159Sol     OW11563   0.550   0.552   5.591  0.2681  0.0224 -0.0664
 2159Sol     HW11564   0.470   0.515   5.629 -0.0702  0.9900  0.2109
 2159Sol     HW11565   0.577   0.490   5.524  0.2350 -1.1569  1.0034
 2159Sol     MW11566   0.545   0.543   5.589  0.0702  0.1313 -0.2522
 2160Sol     OW11567   0.745   3.247   9.007 -0.2946 -1.0970 -1.2246
 2160Sol     HW11568   0.673   3.239   9.070  0.8922 -0.9940  0.1475
 2160Sol     HW11569   0.754   3.159   8.970 -0.1166 -1.4857 -0.2726
 2160Sol     MW11570   0.739   3.238   9.009  0.3039  0.1606 -0.0855
 2161Sol     OW11571   0.787   2.161   4.744 -0.3467  0.6250  0.1751
 2161Sol     HW11572   0.721   2.229   4.760 -1.1640 -0.1120 -0.0518
 2161Sol     HW11573   0.839   2.195   4.672 -1.6606  0.3661 -0.9043
 2161Sol     MW11574   0.786   2.171   4.739  0.0299 -0.0534  0.1561
 2162Sol     OW11575   1.999   1.097   1.965 -0.7353 -0.5696 -0.2511
 2162Sol     HW11576   1.950   1.177   1.948 -1.2036 -0.5330  1.2096
 2162Sol     HW11577   2.086   1.126   1.989 -1.1256 -0.4442  1.0611
 2162Sol     MW11578   2.002   1.107   1.966  0.3995  0.1946 -0.1515
 2163Sol     OW11579   0.922   1.381   8.165 -0.3896 -0.2930  0.5838
 2163Sol     HW11580   0.955   1.432   8.238  0.9480 -0.7028  0.2799
 2163Sol     HW11581   0.870   1.443   8.113  0.4750  0.5293  0.6963
 2163Sol     MW11582   0.920   1.391   8.167 -0.0139  0.3263 -0.4015
 2164Sol     OW11583   0.576   3.205   1.833  0.3035 -0.6282  0.3344
 2164Sol     HW11584   0.648   3.154   1.797  1.2845  0.0950  1.2868
 2164Sol     HW11585   0.500   3.147   1.824  0.5023 -0.5001 -2.8974
 2164Sol     MW11586   0.575   3.195   1.829  0.3134 -0.7115  0.5172
 2165Sol     OW11587   2.421   1.825   5.536 -0.6657 -0.0948  0.4011
 2165Sol     HW11588   2.503   1.874   5.543 -0.4287 -0.4449  0.0983
 2165Sol     HW11589   2.439   1.757   5.471 -0.8207 -0.9243  1.1998
 2165Sol     MW11590   2.430   1.823   5.531  1.1879  0.1980  0.3113
 2166Sol     OW11591   1.347   1.446   9.586 -0.3373 -0.5458 -0.2352
 2166Sol     HW11592   1.303   1.528   9.610  0.6154 -0.2613  0.5500
 2166Sol     HW11593   1.372   1.459   9.494  2.7641  1.3935  0.8239
 2166Sol     MW11594   1.345   1.455   9.580  0.4237 -0.0656 -0.2001
 2167Sol     OW11595   0.022   0.257   2.256 -0.3062 -0.4422  0.0784
 2167Sol     HW11596   0.043   0.230   2.346 -1.5989 -0.3900  0.4083
 2167Sol     HW11597  -0.056   0.312   2.266 -0.2667 -0.1766 -1.0506
 2167Sol     MW11598   0.017   0.260   2.265  0.8370 -0.6029 -0.1118
 2168Sol     OW11599   1.384   0.313   8.532 -0.3844  0.2804 -0.4098
 2168Sol     HW11600   1.315   0.295   8.468  0.6453 -1.6815 -0.9861
 2168Sol     HW11601   1.399   0.229   8.575  1.8368  0.6484 -0.4535
 2168Sol     MW11602   1.379   0.304   8.530  0.0404  0.1072  0.3683
 2169Sol     OW11603   0.396   0.448   3.269  0.2234 -0.5601  0.2744
 2169Sol     HW11604   0.466   0.382   3.264  1.1793  0.4466  0.2281
 2169Sol     HW11605   0.426   0.510   3.335  1.4889  2.2673 -2.8292
 2169Sol     MW11606   0.405   0.447   3.274  0.0982 -1.2672 -0.1306
 2170Sol     OW11607   1.903   2.570   3.288  0.1169 -0.0348  0.5997
 2170Sol     HW11608   1.982   2.612   3.321  1.1454  0.2448 -2.1242
 2170Sol     HW11609   1.901   2.592   3.195 -2.9095 -0.4530  0.5120
 2170Sol     MW11610   1.910   2.576   3.282 -0.1042 -0.3681  0.2521
 2171Sol     OW11611   2.826   0.610   9.010  0.1415 -0.2837  0.0299
 2171Sol     HW11612   2.757   0.571   8.956  0.0673 -0.5075  0.2869
 2171Sol     HW11613   2.869   0.672   8.952 -2.5461  2.4715  0.8479
 2171Sol     MW11614   2.823   0.612   9.000  0.4518 -0.1484 -0.3371
 2172Sol     OW11615   0.591   0.018   7.518  0.3800  0.1476  0.0537
 2172Sol     HW11616   0.549  -0.002   7.435 -1.0663  0.3992  0.7071
 2172Sol     HW11617   0.588  -0.065   7.566  1.7911 -0.1688 -0.3700
 2172Sol     MW11618   0.587   0.008   7.515  0.2265 -0.1481 -0.0798
 2173Sol     OW11619   0.869   3.438   5.937  0.1246 -0.0605 -0.2937
 2173Sol     HW11620   0.804   3.505   5.956  1.3176  0.8501  0.7027
 2173Sol     HW11621   0.818   3.359   5.920 -1.2449  0.7265  0.0580
 2173Sol     MW11622   0.859   3.437   5.937 -0.2271 -0.0927  0.0567
 2174Sol     OW11623   1.728   0.207   6.245 -0.3405  0.8976  0.1636
 2174Sol     HW11624   1.805   0.228   6.297  0.8431  0.8580 -1.5336
 2174Sol     HW11625   1.654   0.236   6.299  0.7896  0.2253  2.1577
 2174Sol     MW11626   1.728   0.211   6.255 -0.0787  0.0606  0.2043
 2175Sol     OW11627   1.020   0.514   2.612  0.1388  0.3155  0.0169
 2175Sol     HW11628   0.933   0.522   2.650  0.1109  0.5956 -0.1060
 2175Sol     HW11629   1.031   0.593   2.559  0.2152 -0.0280 -0.4839
 2175Sol     MW11630   1.013   0.522   2.611 -0.0749 -0.1666  0.9028
 2176Sol     OW11631   2.023   0.177   4.718 -0.0523  0.5382 -0.3727
 2176Sol     HW11632   2.046   0.149   4.629 -0.3333  2.3086 -1.0212
 2176Sol     HW11633   1.962   0.249   4.705 -2.1801 -0.9059  1.3032
 2176Sol     MW11634   2.020   0.181   4.708  0.4047  0.2181  0.0386
 2177Sol     OW11635   2.010   2.750   1.316  0.1123 -0.3876 -0.0399
 2177Sol     HW11636   2.041   2.660   1.320 -0.9740 -0.8302 -1.0850
 2177Sol     HW11637   1.930   2.746   1.263 -0.5029  1.0351  0.7148
 2177Sol     MW11638   2.005   2.742   1.312 -0.1402 -0.2071 -0.9313
 2178Sol     OW11639   2.366   0.157   7.419 -0.2917 -0.4157  0.6223
 2178Sol     HW11640   2.297   0.209   7.460 -1.4162 -1.0963 -0.3926
 2178Sol     HW11641   2.329   0.069   7.411  0.1468 -0.4541 -1.2464
 2178Sol     MW11642   2.356   0.154   7.422 -0.6914  0.1634  0.1322
 2179Sol     OW11643   2.072   0.940   6.045  0.4317  0.4525 -0.6976
 2179Sol     HW11644   2.045   0.967   5.957 -0.1378 -1.4602 -1.1268
 2179Sol     HW11645   2.094   0.847   6.036 -1.0942 -0.1497  1.4876
 2179Sol     MW11646   2.072   0.934   6.036 -0.4775  0.4579  0.1636
 2180Sol     OW11647   0.960   0.241   6.546 -0.0151 -0.2617  0.1535
 2180Sol     HW11648   1.015   0.219   6.471 -2.3975 -2.2733 -1.0842
 2180Sol     HW11649   0.914   0.320   6.519  0.1856 -0.1696  0.0769
 2180Sol     MW11650   0.961   0.246   6.537  0.0084  0.1271  0.2427
 2181Sol     OW11651   1.617   2.669   7.738 -0.6182  0.0217  0.4472
 2181Sol     HW11652   1.636   2.634   7.650  1.1829  0.0302  0.8125
 2181Sol     HW11653   1.545   2.730   7.724 -0.1674  0.2312 -1.0845
 2181Sol     MW11654   1.612   2.671   7.729  0.2329 -0.2997  0.3738
 2182Sol     OW11655   2.061   0.046   2.811 -0.2940 -0.1774 -0.2153
 2182Sol     HW11656   1.978   0.081   2.843  0.1642  0.7946 -0.0931
 2182Sol     HW11657   2.128   0.090   2.863  0.2569 -1.8442  0.5170
 2182Sol     MW11658   2.059   0.053   2.819 -0.0375  0.3881  0.2998
 2183Sol     OW11659   2.550   1.705   1.984  0.2795  0.5392  0.2142
 2183Sol     HW11660   2.616   1.712   2.053 -0.8030 -1.0813  1.4682
 2183Sol     HW11661   2.579   1.630   1.932 -0.3086  0.1159  0.4903
 2183Sol     MW11662   2.558   1.699   1.986 -0.1462 -0.0932  0.0762
 2184Sol     OW11663   3.112   2.595   1.753 -0.4181  0.7943  0.4601
 2184Sol     HW11664   3.038   2.540   1.731  0.0740  0.3130 -0.0060
 2184Sol     HW11665   3.087   2.637   1.835 -1.2706  0.7685  0.2172
 2184Sol     MW11666   3.103   2.594   1.758  0.5080 -0.1189 -0.0065
 2185Sol     OW11667   2.387   1.623   7.163 -0.4649 -0.1078 -0.2290
 2185Sol     HW11668   2.425   1.625   7.251  1.6469  0.8240 -1.1384
 2185Sol     HW11669   2.438   1.557   7.116  1.1350  2.2528 -1.9165
 2185Sol     MW11670   2.395   1.617   7.167 -0.1518 -0.2928  0.4775
 2186Sol     OW11671   0.702   1.796   7.233  0.2359  0.3408  0.0702
 2186Sol     HW11672   0.727   1.837   7.315  0.5371  0.5382 -0.1197
 2186Sol     HW11673   0.784   1.788   7.184  0.5698 -2.4919  0.9800
 2186Sol     MW11674   0.712   1.799   7.236  0.1364  0.0234 -0.5417
 2187Sol     OW11675   2.098   2.731   7.313  0.0155 -0.0009  0.3442
 2187Sol     HW11676   2.105   2.798   7.245  1.1852  0.7601  1.1830
 2187Sol     HW11677   2.078   2.780   7.392 -0.6514 -0.8086  0.6777
 2187Sol     MW11678   2.097   2.742   7.314  0.2890 -0.3178 -0.2319
 2188Sol     OW11679   3.168   0.153   6.137 -0.1796 -0.3514 -0.1475
 2188Sol     HW11680   3.107   0.217   6.101 -1.5416 -1.1170  0.7324
 2188Sol     HW11681   3.245   0.157   6.080 -0.6143  1.4090 -0.6204
 2188Sol     MW11682   3.170   0.159   6.129  0.3961  0.4336  0.6591
 2189Sol     OW11683   0.531   2.036   7.521  0.4773 -0.2637 -0.9881
 2189Sol     HW11684   0.520   2.128   7.496 -2.9178 -0.5624 -0.8957
 2189Sol     HW11685   0.442   2.000   7.517  1.9777 -3.9678 -2.5985
 2189Sol     MW11686   0.522   2.041   7.518  0.1877 -0.1749 -0.5953
 2190Sol     OW11687   1.144   1.348   6.586  0.1509 -0.4342 -0.5302
 2190Sol     HW11688   1.131   1.384   6.498  0.2508 -0.0135 -0.3784
 2190Sol     HW11689   1.089   1.403   6.642  0.6676 -0.2140 -0.2282
 2190Sol     MW11690   1.138   1.356   6.583 -0.1397  0.1778  0.1821
 2191Sol     OW11691   0.570   3.344   5.068  0.3356 -0.0826  0.1426
 2191Sol     HW11692   0.500   3.296   5.112  0.7556 -0.0567  0.8554
 2191Sol     HW11693   0.539   3.435   5.066 -0.9185 -0.5237 -2.1394
 2191Sol     MW11694   0.561   3.348   5.072 -0.0509 -0.1202  0.3875
 2192Sol     OW11695   1.125   1.907   4.103 -0.1447 -0.3191 -0.5049
 2192Sol     HW11696   1.052   1.889   4.043  0.3911 -0.9012 -0.9977
 2192Sol     HW11697   1.084   1.914   4.189 -0.7625 -0.8458 -0.7503
 2192Sol     MW11698   1.115   1.906   4.105 -0.3492 -0.0803 -0.2282
 2193Sol     OW11699   0.473   2.347   4.323  0.3812 -0.4716 -0.3493
 2193Sol     HW11700   0.463   2.434   4.360  0.4466  0.8973 -3.3899
 2193Sol     HW11701   0.385   2.309   4.326  0.2346 -0.0700  0.4200
 2193Sol     MW11702   0.464   2.351   4.327  0.7342  0.0017  0.6420
 2194Sol     OW11703   1.162   0.238   7.227  0.2591  0.4052 -0.4995
 2194Sol     HW11704   1.248   0.209   7.257 -0.7998 -0.5390  1.6999
 2194Sol     HW11705   1.101   0.172   7.260 -1.2512  0.6398 -2.6854
 2194Sol     MW11706   1.164   0.229   7.232 -0.8745 -0.3128  0.0712
 2195Sol     OW11707   0.867   1.925   6.153  0.3605  0.5085  0.5861
 2195Sol     HW11708   0.899   1.996   6.209  0.5515  0.9043 -0.0216
 2195Sol     HW11709   0.910   1.939   6.069  0.2450 -0.2144  0.4034
 2195Sol     MW11710   0.873   1.932   6.151 -0.5241  0.1663 -0.5671
 2196Sol     OW11711   1.901   0.957   2.903 -0.0763  0.4272  0.0108
 2196Sol     HW11712   1.948   1.038   2.884  1.0032 -0.1024  0.3650
 2196Sol     HW11713   1.858   0.934   2.821 -1.0132  1.7516  0.1124
 2196Sol     MW11714   1.902   0.962   2.894  0.1386 -0.8647 -0.6326
 2197Sol     OW11715   3.048   1.264   3.840 -0.0825 -0.2503 -0.2773
 2197Sol     HW11716   3.039   1.356   3.866 -1.2634 -0.3937 -0.1744
 2197Sol     HW11717   3.078   1.268   3.750  1.2912  0.2395  0.1864
 2197Sol     MW11718   3.050   1.272   3.835 -0.5104  0.6106 -0.5678
 2198Sol     OW11719   2.305   1.426   9.365  0.3169  0.4559 -0.0947
 2198Sol     HW11720   2.354   1.349   9.336 -0.1219 -0.3198  1.1823
 2198Sol     HW11721   2.234   1.435   9.301  1.0333  0.4877 -0.8907
 2198Sol     MW11722   2.303   1.420   9.356 -0.0982 -0.3389 -0.6307
 2199Sol     OW11723   2.067   3.189   4.661 -0.5680  0.7773 -0.6698
 2199Sol     HW11724   1.981   3.217   4.693 -0.5599  1.4482 -1.2263
 2199Sol     HW11725   2.048   3.114   4.605 -0.7775  0.8514 -0.6990
 2199Sol     MW11726   2.058   3.185   4.659 -0.1782  0.2082  0.3085
 2200Sol     OW11727   0.636   2.204   6.112  0.0847  0.4237 -0.4633
 2200Sol     HW11728   0.592   2.289   6.106 -1.1103 -0.1805 -0.4370
 2200Sol     HW11729   0.609   2.157   6.033 -1.6953 -1.0354  0.9437
 2200Sol     MW11730   0.630   2.207   6.104 -0.1161  0.0709 -0.2413
 2201Sol     OW11731   2.669   1.356   7.337 -0.0940 -0.5132  0.4470
 2201Sol     HW11732   2.639   1.280   7.388  1.0226 -0.0014  1.8904
 2201Sol     HW11733   2.627   1.431   7.379  1.1026 -0.0527  0.8524
 2201Sol     MW11734   2.662   1.356   7.346 -0.7443 -0.0454  0.0864
 2202Sol     OW11735   0.431   0.269   2.099 -0.6874 -0.0049 -0.5632
 2202Sol     HW11736   0.347   0.313   2.108 -0.9504 -0.6814  0.3442
 2202Sol     HW11737   0.496   0.337   2.114 -1.0910  0.1938  0.2790
 2202Sol     MW11738   0.429   0.279   2.101  0.5435 -0.5823 -0.0996
 2203Sol     OW11739   2.288   3.434   3.281  0.0347  0.3985  0.1249
 2203Sol     HW11740   2.209   3.481   3.306  0.1819  0.8333 -0.2282
 2203Sol     HW11741   2.272   3.344   3.309 -0.6197  0.4634 -0.0350
 2203Sol     MW11742   2.280   3.430   3.286  0.1029  0.5292  0.4870
 2204Sol     OW11743   1.692   0.034   2.702  0.1997 -0.0961  0.1248
 2204Sol     HW11744   1.631  -0.035   2.724  0.1281  0.8331  2.9702
 2204Sol     HW11745   1.774  -0.012   2.683 -0.4420 -1.0906 -0.2779
 2204Sol     MW11746   1.694   0.024   2.702  0.5551  0.8882  0.7833
 2205Sol     OW11747   1.337   1.579   7.384 -0.0121  0.8053  0.8987
 2205Sol     HW11748   1.364   1.656   7.433 -0.8240  1.7597 -0.1233
 2205Sol     HW11749   1.398   1.575   7.310  0.0435  0.4530  0.9633
 2205Sol     MW11750   1.345   1.585   7.382  0.3621 -0.2625  0.0539
 2206Sol     OW11751   1.384   2.074   3.811  0.5090  0.1962  0.2689
 2206Sol     HW11752   1.296   2.082   3.849  0.0829 -0.1756 -0.5989
 2206Sol     HW11753   1.434   2.027   3.877 -0.4782 -1.2881 -0.0032
 2206Sol     MW11754   1.380   2.070   3.820 -0.0525  0.0169  0.0666
 2207Sol     OW11755   2.274   1.664   2.667 -0.3839  0.0997  0.4270
 2207Sol     HW11756   2.201   1.604   2.655  0.1694 -0.6317  0.7206
 2207Sol     HW11757   2.289   1.701   2.579  0.5381 -1.6545 -0.1682
 2207Sol     MW11758   2.269   1.662   2.658 -0.2257  0.6871  0.7341
 2208Sol     OW11759   2.327   0.365   5.662 -0.0736 -0.3934  0.9252
 2208Sol     HW11760   2.238   0.348   5.632  0.6668  1.0803 -2.2661
 2208Sol     HW11761   2.373   0.282   5.648 -0.3567 -0.4598  0.4008
 2208Sol     MW11762   2.323   0.356   5.658 -0.2834 -0.4669  0.0696
 2209Sol     OW11763   3.107   2.992   1.706 -0.7118 -0.5073  0.2774
 2209Sol     HW11764   3.109   2.967   1.799  1.5865  1.3251  0.7865
 2209Sol     HW11765   3.028   2.951   1.672 -2.0771 -0.5059  3.2539
 2209Sol     MW11766   3.100   2.986   1.711  0.5294  0.6175 -0.4516
 2210Sol     OW11767   3.209   1.241   5.942 -0.3863 -0.0030 -1.0485
 2210Sol     HW11768   3.195   1.236   6.037  1.1898  0.3506 -0.7829
 2210Sol     HW11769   3.178   1.157   5.909  0.5534 -0.7729 -0.0021
 2210Sol     MW11770   3.205   1.233   5.947 -0.1072  0.0941 -0.2620
 2211Sol     OW11771   1.850   3.353   3.495 -0.5356  0.1275  0.2628
 2211Sol     HW11772   1.760   3.340   3.525 -0.4406 -0.0435  0.4749
 2211Sol     HW11773   1.904   3.334   3.572 -0.3827  1.4786  0.4913
 2211Sol     MW11774   1.847   3.350   3.505  0.3140  0.2727 -0.1868
 2212Sol     OW11775   0.909   2.714   6.476 -0.4674  0.5664 -0.4134
 2212Sol     HW11776   0.945   2.694   6.390  0.4477  2.1206 -0.4128
 2212Sol     HW11777   0.970   2.674   6.538  0.5361  2.0121 -0.4430
 2212Sol     MW11778   0.918   2.709   6.474 -0.4989  0.5333 -0.1957
 2213Sol     OW11779   0.274   0.870   2.280 -0.1482 -0.1417  0.3896
 2213Sol     HW11780   0.254   0.948   2.330 -0.7749 -0.4011  0.5456
 2213Sol     HW11781   0.215   0.873   2.205 -1.2865 -1.2723  1.2226
 2213Sol     MW11782   0.267   0.877   2.277 -0.6903 -0.4823  0.0233
 2214Sol     OW11783   1.370   1.069   4.005 -0.4780  0.2484  0.1703
 2214Sol     HW11784   1.324   1.145   4.039 -1.5100 -0.2758 -0.0040
 2214Sol     HW11785   1.455   1.102   3.977 -0.9677  1.3598 -0.0325
 2214Sol     MW11786   1.373   1.078   4.005  0.2473  0.4361 -0.4847
 2215Sol     OW11787   0.427   0.012   6.446 -0.4799 -0.5136 -0.4346
 2215Sol     HW11788   0.509   0.047   6.481  0.1290 -2.0928 -0.2250
 2215Sol     HW11789   0.418  -0.074   6.488 -0.9711 -1.4103 -2.2986
 2215Sol     MW11790   0.434   0.007   6.453  0.0284  0.0004 -0.1549
 2216Sol     OW11791   1.660   1.240   6.577  0.0451 -0.2227 -0.0089
 2216Sol     HW11792   1.640   1.148   6.563 -1.9766  0.1647  0.0362
 2216Sol     HW11793   1.580   1.276   6.616  0.4093  1.7445 -0.9776
 2216Sol     MW11794   1.651   1.235   6.579  0.1306  0.1068 -0.1467
 2217Sol     OW11795   0.949   3.248   7.549  0.7492  0.1856  0.1913
 2217Sol     HW11796   1.038   3.244   7.516  0.0263  0.2232 -1.8426
 2217Sol     HW11797   0.920   3.338   7.529  0.5053  0.4129  1.5249
 2217Sol     MW11798   0.954   3.256   7.544 -0.0357 -0.4375  0.1079
 2218Sol     OW11799   0.975   1.017   4.204  0.1561 -0.2100 -0.3310
 2218Sol     HW11800   0.944   0.981   4.287  0.9298 -0.2740 -0.0727
 2218Sol     HW11801   1.027   0.948   4.165  2.6231  1.0060  0.7140
 2218Sol     MW11802   0.977   1.008   4.208  0.4045  0.2966 -0.1462
 2219Sol     OW11803   2.346   0.652   2.888  0.3347  0.0345  0.1327
 2219Sol     HW11804   2.442   0.654   2.888  0.3506 -0.1462 -2.2236
 2219Sol     HW11805   2.321   0.659   2.796 -1.9794  2.2326  0.8665
 2219Sol     MW11806   2.353   0.653   2.880 -0.2363  0.4642  0.4956
 2220Sol     OW11807   1.700   1.942   4.724  0.5793  0.0309 -0.2386
 2220Sol     HW11808   1.647   1.884   4.669 -0.9791  1.5232 -0.3167
 2220Sol     HW11809   1.763   1.883   4.766 -1.8025 -1.9130  0.6887
 2220Sol     MW11810   1.701   1.931   4.722 -0.4515 -0.8863 -0.1057
 2221Sol     OW11811   1.764   0.499   1.595 -0.0975  0.8552 -0.4259
 2221Sol     HW11812   1.698   0.481   1.528  1.0302  1.0573 -1.5958
 2221Sol     HW11813   1.791   0.589   1.580 -1.3289  1.6160  1.6336
 2221Sol     MW11814   1.761   0.505   1.588  0.5866 -0.1682  0.6856
 2222Sol     OW11815   0.189   1.128   5.818 -0.1257 -0.3718  0.1791
 2222Sol     HW11816   0.283   1.111   5.821  0.1693  1.0412 -0.6370
 2222Sol     HW11817   0.176   1.202   5.877 -0.5259  0.3218 -0.7729
 2222Sol     MW11818   0.196   1.133   5.823 -0.0640 -0.5597 -0.3274
 2223Sol     OW11819   1.453   2.223   1.686  0.4400  0.2905 -0.2424
 2223Sol     HW11820   1.534   2.275   1.683  0.1752  0.6369 -1.9963
 2223Sol     HW11821   1.383   2.287   1.678  0.0803 -0.2393 -1.4092
 2223Sol     MW11822   1.454   2.234   1.685  0.3313  0.2150 -0.0776
 2224Sol     OW11823   2.169   0.711   1.805  0.2045 -0.0330  0.4464
 2224Sol     HW11824   2.250   0.762   1.808  0.0437  0.1689  1.4500
 2224Sol     HW11825   2.164   0.668   1.890  0.3105 -1.6996 -0.3743
 2224Sol     MW11826   2.176   0.711   1.813 -0.0327  0.2563 -0.0330
 2225Sol     OW11827   2.585   1.974   9.462  0.0615 -0.0708 -0.7432
 2225Sol     HW11828   2.522   1.901   9.463 -0.8090  0.6745  0.1355
 2225Sol     HW11829   2.531   2.053   9.458  0.8466  0.6470  1.7004
 2225Sol     MW11830   2.574   1.974   9.462 -0.1395 -0.5422  0.0098
 2226Sol     OW11831   1.755   1.004   5.955 -0.4551  0.0090  0.0883
 2226Sol     HW11832   1.807   1.050   6.021 -0.5720 -0.0060  0.1889
 2226Sol     HW11833   1.700   0.944   6.004 -1.9238  1.3493  0.1243
 2226Sol     MW11834   1.755   1.003   5.965  0.1398 -0.2015 -0.4588
 2227Sol     OW11835   1.838   0.553   4.013  0.0493  0.1988  0.2756
 2227Sol     HW11836   1.818   0.500   4.091 -0.7919  0.8186  0.4909
 2227Sol     HW11837   1.771   0.530   3.950 -1.0347  1.8408  0.7834
 2227Sol     MW11838   1.831   0.547   4.015 -0.5844 -0.0022  0.1793
 2228Sol     OW11839   3.195   3.277   2.013  0.1942  0.2517  0.1365
 2228Sol     HW11840   3.231   3.259   2.099 -2.1503  2.1085  1.5686
 2228Sol     HW11841   3.193   3.373   2.007 -2.4715  0.1900 -0.7252
 2228Sol     MW11842   3.198   3.284   2.020 -0.1209 -0.3684 -0.3521
 2229Sol     OW11843   2.441   0.228   9.333 -0.2642  0.0779  0.2409
 2229Sol     HW11844   2.402   0.211   9.418  1.6032 -0.8723  0.9389
 2229Sol     HW11845   2.443   0.143   9.289  1.8701 -0.0923  0.6068
 2229Sol     MW11846   2.438   0.219   9.336  0.0635  0.4357 -0.1084
 2230Sol     OW11847   1.467   2.677   1.950 -0.4126 -0.4585  0.0622
 2230Sol     HW11848   1.551   2.651   1.987  1.5331  2.2135 -2.2936
 2230Sol     HW11849   1.451   2.765   1.985 -2.4115 -1.0482  0.7131
 2230Sol     MW11850   1.473   2.683   1.957 -0.1330  0.5200 -0.2165
 2231Sol     OW11851   0.136   1.166   9.620  0.7691  0.4685 -0.1643
 2231Sol     HW11852   0.147   1.252   9.661  0.9644 -0.0760  0.9412
 2231Sol     HW11853   0.074   1.120   9.677  1.3387 -0.4363 -0.2567
 2231Sol     MW11854   0.131   1.170   9.629  0.2329 -0.0432 -0.4562
 2232Sol     OW11855   0.225   2.643   7.011 -0.0142  0.9623 -0.1718
 2232Sol     HW11856   0.159   2.581   6.979 -0.5922 -0.1858  3.0516
 2232Sol     HW11857   0.296   2.638   6.947  0.7840 -4.5199  0.9337
 2232Sol     MW11858   0.226   2.637   7.002  0.0563 -0.6687 -0.0795
 2233Sol     OW11859   0.366   2.243   8.347 -0.3253 -0.1551  0.4345
 2233Sol     HW11860   0.402   2.155   8.344 -1.4642 -0.6279  0.2508
 2233Sol     HW11861   0.442   2.301   8.350  0.4866 -1.0581 -1.6350
 2233Sol     MW11862   0.376   2.240   8.347 -0.8861  0.0018  0.2248
 2234Sol     OW11863   1.638   1.371   5.847  0.8826  0.6593  0.2662
 2234Sol     HW11864   1.632   1.276   5.839 -2.6176  0.6441  2.1266
 2234Sol     HW11865   1.693   1.385   5.924  0.0841  0.0893  0.9518
 2234Sol     MW11866   1.642   1.364   5.853 -0.1511 -0.2280  0.4457
 2235Sol     OW11867   2.020   2.905   6.471  0.1925  0.3544 -0.1463
 2235Sol     HW11868   1.958   2.835   6.451 -0.7052  1.4851 -1.4711
 2235Sol     HW11869   1.984   2.982   6.425  2.2815  1.1557 -0.4861
 2235Sol     MW11870   2.011   2.906   6.465 -0.2249  0.3402 -0.9390
 2236Sol     OW11871   0.181   2.278   7.893 -0.5071  0.3098 -0.7992
 2236Sol     HW11872   0.163   2.265   7.986 -1.1677 -2.0220 -1.2145
 2236Sol     HW11873   0.192   2.373   7.883  0.1959  0.5189  1.7462
 2236Sol     MW11874   0.180   2.286   7.900 -0.3469  0.3773 -0.5722
 2237Sol     OW11875   2.007   0.022   5.815 -0.0323 -0.1552 -0.1991
 2237Sol     HW11876   2.014   0.062   5.902 -0.5183 -0.8877  0.1863
 2237Sol     HW11877   1.912   0.016   5.799  0.0469 -0.7437 -0.4436
 2237Sol     MW11878   1.999   0.025   5.821  0.1080  0.3357 -0.0688
 2238Sol     OW11879   1.176   2.159   3.943 -0.0545  0.4314  0.8323
 2238Sol     HW11880   1.239   2.215   3.987  1.8320 -0.5305 -0.5616
 2238Sol     HW11881   1.167   2.083   4.001  1.2514 -0.1349  0.2951
 2238Sol     MW11882   1.181   2.157   3.953 -0.1819 -0.0814 -0.1664
 2239Sol     OW11883   1.751   2.120   8.848  0.2870 -0.2240  0.3281
 2239Sol     HW11884   1.797   2.163   8.920  0.3440  0.0857  0.1080
 2239Sol     HW11885   1.710   2.192   8.800 -0.4748 -0.5037  0.5573
 2239Sol     MW11886   1.752   2.130   8.850  0.4319  0.0807  0.0233
 2240Sol     OW11887   2.157   2.309   1.768 -0.1288 -0.0718 -0.6363
 2240Sol     HW11888   2.203   2.320   1.851  1.2992  1.2802 -1.5802
 2240Sol     HW11889   2.212   2.249   1.718 -0.4916 -0.1258 -0.9744
 2240Sol     MW11890   2.166   2.304   1.771  0.3285  0.4208  0.2728
 2241Sol     OW11891   2.634   2.354   9.026  0.7290 -0.1144  0.3764
 2241Sol     HW11892   2.646   2.321   8.936 -0.0853 -0.8347  0.5242
 2241Sol     HW11893   2.708   2.317   9.075  1.4315  0.6509 -0.0888
 2241Sol     MW11894   2.642   2.348   9.022 -0.7955 -0.0044  0.0614
 2242Sol     OW11895   2.632   0.096   6.359  0.0837  0.0625  0.7767
 2242Sol     HW11896   2.600   0.164   6.300  0.6595  0.6753  1.1595
 2242Sol     HW11897   2.553   0.054   6.393 -0.2711  0.4563  0.4461
 2242Sol     MW11898   2.622   0.098   6.356 -0.6178  0.0706  0.3568
 2243Sol     OW11899   2.765   1.326   5.053 -0.5291 -0.0434 -0.0331
 2243Sol     HW11900   2.819   1.346   4.977 -1.8170 -0.0403 -0.9551
 2243Sol     HW11901   2.774   1.231   5.065  0.2456  0.0642  0.2608
 2243Sol     MW11902   2.771   1.319   5.047 -0.1011  0.2194  0.3561
 2244Sol     OW11903   2.533   3.340   8.108  0.5239 -0.0616 -0.1775
 2244Sol     HW11904   2.554   3.429   8.080  0.0969  0.9697  2.6127
 2244Sol     HW11905   2.439   3.342   8.126  0.2017 -1.5242 -1.5071
 2244Sol     MW11906   2.526   3.348   8.107  0.3972 -0.4617 -0.3144
 2245Sol     OW11907   0.607   0.433   4.511 -0.6486  0.2082 -0.1437
 2245Sol     HW11908   0.683   0.420   4.568  0.9447  0.1986 -2.2315
 2245Sol     HW11909   0.615   0.366   4.443 -3.6756 -1.1471  0.7425
 2245Sol     MW11910   0.614   0.426   4.510  0.4605  0.2786 -0.3880
 2246Sol     OW11911   0.799   1.767   8.693 -0.1960 -0.0807  0.4252
 2246Sol     HW11912   0.887   1.802   8.679 -0.6129  0.8734  0.1877
 2246Sol     HW11913   0.779   1.721   8.611  0.2409 -0.6500  0.6347
 2246Sol     MW11914   0.805   1.766   8.684  0.7812 -0.1422  0.1632
 2247Sol     OW11915   1.311   2.359   9.914  0.3675  0.4163 -0.0648
 2247Sol     HW11916   1.401   2.391   9.924  1.0715 -1.1684 -1.1485
 2247Sol     HW11917   1.319   2.264   9.917 -1.1936  0.2509 -0.7960
 2247Sol     MW11918   1.320   2.354   9.915  0.8398  0.1841  0.2542
 2248Sol     OW11919   2.606   0.963   4.151 -0.6046 -0.3999 -0.0748
 2248Sol     HW11920   2.621   1.046   4.196 -2.2576 -0.0615 -0.1215
 2248Sol     HW11921   2.548   0.914   4.210 -0.7904 -0.9440 -0.6991
 2248Sol     MW11922   2.602   0.966   4.160 -0.1075  0.8134  0.3658
 2249Sol     OW11923   3.060   0.015   2.596 -0.4696  0.4063 -0.7402
 2249Sol     HW11924   3.009   0.093   2.573 -3.0197 -0.8369  0.4772
 2249Sol     HW11925   3.047   0.005   2.691  2.4414  0.2852 -0.3072
 2249Sol     MW11926   3.054   0.021   2.603  0.3489 -0.1150 -0.4972
 2250Sol     OW11927   2.989   1.450   4.101  0.5397  0.4262  0.3814
 2250Sol     HW11928   2.984   1.356   4.118  1.2947  0.5317  1.2386
 2250Sol     HW11929   3.030   1.486   4.180  0.1546  1.4886  0.1029
 2250Sol     MW11930   2.992   1.445   4.110 -0.3717  0.4653  0.5553
 2251Sol     OW11931   2.729   0.747   3.698  0.0214 -0.2596  0.1779
 2251Sol     HW11932   2.725   0.822   3.639 -0.2388 -0.5179 -0.1301
 2251Sol     HW11933   2.690   0.779   3.780  0.3130  0.0719  0.1910
 2251Sol     MW11934   2.725   0.757   3.700  0.0491 -0.1339  0.3816
 2252Sol     OW11935   0.687   1.802   6.802 -0.5887 -0.7538 -0.0833
 2252Sol     HW11936   0.697   1.838   6.714 -1.1578 -0.4040 -0.0078
 2252Sol     HW11937   0.683   1.878   6.859 -0.2195 -0.9819  0.2452
 2252Sol     MW11938   0.688   1.812   6.799 -0.3048  0.1651 -0.0565
 2253Sol     OW11939   0.325   1.453   7.572  0.3435  0.4605 -0.0486
 2253Sol     HW11940   0.322   1.382   7.636 -1.0700  1.3045  0.8646
 2253Sol     HW11941   0.342   1.532   7.624  0.4867  0.9840 -0.8748
 2253Sol     MW11942   0.326   1.454   7.583  0.1825  0.7375 -0.2263
 2254Sol     OW11943   2.266   2.371   2.268 -0.2694  0.1800 -0.1508
 2254Sol     HW11944   2.215   2.447   2.295 -1.3792 -0.2613 -0.9636
 2254Sol     HW11945   2.201   2.303   2.249  0.5046  0.1320 -2.8425
 2254Sol     MW11946   2.256   2.371   2.269  0.3500 -0.1520 -0.4516
 2255Sol     OW11947   1.853   1.024   4.003  0.3785 -0.2294  0.0600
 2255Sol     HW11948   1.844   0.945   4.055 -1.1450  0.7870  1.3742
 2255Sol     HW11949   1.764   1.059   3.996  1.0611  1.5242 -0.2498
 2255Sol     MW11950   1.845   1.020   4.007  0.3508  0.0848 -0.1232
 2256Sol     OW11951   2.655   0.516   4.289  0.0253 -0.1763  0.0238
 2256Sol     HW11952   2.564   0.509   4.317  0.7310  1.1565  2.8059
 2256Sol     HW11953   2.697   0.438   4.325  0.1766 -0.3368 -0.4961
 2256Sol     MW11954   2.651   0.508   4.295 -0.2526 -1.1457 -0.4396
 2257Sol     OW11955   1.786   1.298   1.520 -0.0830  0.5407  0.0660
 2257Sol     HW11956   1.775   1.353   1.597  0.2301  0.4653  0.1653
 2257Sol     HW11957   1.702   1.253   1.511 -0.1415  0.5956  0.3255
 2257Sol     MW11958   1.777   1.299   1.526  0.1079  0.3801  0.1223
 2258Sol     OW11959   2.875   3.078   9.201 -0.3270 -0.0379  0.7178
 2258Sol     HW11960   2.920   3.042   9.276  0.0900  0.4981  0.7305
 2258Sol     HW11961   2.920   3.161   9.183  0.1159 -0.5634 -0.6369
 2258Sol     MW11962   2.883   3.082   9.206 -0.5200  0.4867  0.0890
 2259Sol     OW11963   1.369   2.904   9.345  0.4128 -0.2592  0.4166
 2259Sol     HW11964   1.288   2.854   9.354 -0.9492  1.4894 -1.4483
 2259Sol     HW11965   1.363   2.972   9.412  0.0088  0.2836 -0.1679
 2259Sol     MW11966   1.361   2.906   9.352 -0.4043  0.1565  0.2565
 2260Sol     OW11967   0.625   3.260   2.134  0.1892 -0.3802 -0.0300
 2260Sol     HW11968   0.543   3.272   2.181  1.1801 -0.3698  1.7237
 2260Sol     HW11969   0.599   3.249   2.043 -1.8624 -1.8693  0.7073
 2260Sol     MW11970   0.616   3.260   2.130  0.2594 -0.2574  0.5751
 2261Sol     OW11971   1.451   2.018   6.134  0.6542 -0.0365 -0.1998
 2261Sol     HW11972   1.375   2.074   6.147 -0.5462 -1.3456 -1.4404
 2261Sol     HW11973   1.523   2.065   6.176 -0.8388  1.1846  1.0289
 2261Sol     MW11974   1.451   2.027   6.139 -0.6124 -0.2950 -0.6470
 2262Sol     OW11975   0.596   0.741   5.202  1.0740  0.2413  0.5205
 2262Sol     HW11976   0.609   0.650   5.177  0.1890  0.3059 -0.2060
 2262Sol     HW11977   0.629   0.746   5.292  1.1235 -0.7960  0.5679
 2262Sol     MW11978   0.600   0.733   5.208 -0.3119 -0.1040 -0.1632
 2263Sol     OW11979   1.489   0.614   7.203  0.3593  0.0766  0.4881
 2263Sol     HW11980   1.416   0.649   7.254 -1.0490 -0.9867 -0.7478
 2263Sol     HW11981   1.527   0.690   7.159 -1.0945  0.4003 -0.2188
 2263Sol     MW11982   1.486   0.624   7.204 -0.4893  0.2412 -0.1289
 2264Sol     OW11983   0.252   1.921   7.261  0.4829  0.5803 -0.7215
 2264Sol     HW11984   0.264   1.856   7.193  1.0281  0.6858 -0.7304
 2264Sol     HW11985   0.173   1.969   7.236  0.7543  0.7041 -1.3442
 2264Sol     MW11986   0.246   1.919   7.253 -0.1572  0.4706  0.4285
 2265Sol     OW11987   2.554   2.049   9.810  0.2216  0.4250  0.4921
 2265Sol     HW11988   2.590   1.961   9.797 -0.4883  0.3545 -1.1369
 2265Sol     HW11989   2.509   2.044   9.894 -0.1242 -0.8877  0.2393
 2265Sol     MW11990   2.553   2.041   9.816  0.3643 -0.4392 -0.5145
 2266Sol     OW11991   2.764   0.163   5.526 -0.3137  0.2509 -0.0295
 2266Sol     HW11992   2.774   0.202   5.439  0.8964 -0.1809 -0.0813
 2266Sol     HW11993   2.670   0.149   5.535 -0.4292  0.1899 -1.3142
 2266Sol     MW11994   2.756   0.165   5.519 -0.1117 -0.3479 -0.0041
 2267Sol     OW11995   1.666   0.324   9.284 -0.4537  0.1805  0.1423
 2267Sol     HW11996   1.596   0.293   9.342  0.1630  1.5807  1.6920
 2267Sol     HW11997   1.640   0.413   9.260 -0.0821  0.0589 -0.7403
 2267Sol     MW11998   1.657   0.329   9.287  0.4458 -0.0874 -0.3271
 2268Sol     OW11999   1.735   1.588   2.261  0.3142 -0.0248 -0.0510
 2268Sol     HW12000   1.714   1.580   2.168  0.6986 -0.7596 -0.0801
 2268Sol     HW12001   1.716   1.501   2.297  1.7072 -0.2265  0.2335
 2268Sol     MW12002   1.732   1.579   2.256  0.5571  0.3247 -0.2579
 2269Sol     OW12003   3.212   0.659   4.525  0.0855 -0.3405 -0.6566
 2269Sol     HW12004   3.117   0.667   4.525  0.1398  0.3814 -1.2423
 2269Sol     HW12005   3.238   0.689   4.438  1.0474  1.9130  0.3599
 2269Sol     MW12006   3.206   0.662   4.517 -0.5277  0.1312 -0.2913
 2270Sol     OW12007   3.248   1.220   6.587 -0.2352 -0.2709  0.1250
 2270Sol     HW12008   3.211   1.162   6.520  1.1659 -0.6851 -0.3099
 2270Sol     HW12009   3.268   1.301   6.540  1.9154 -0.9910 -0.2876
 2270Sol     MW12010   3.247   1.222   6.577  0.7580  0.4513  0.4158
 2271Sol     OW12011   1.667   1.371   2.429 -0.0189 -0.3557  0.1080
 2271Sol     HW12012   1.736   1.320   2.385  0.2722  1.1014 -1.1826
 2271Sol     HW12013   1.585   1.334   2.395  0.1880  0.0724 -0.8573
 2271Sol     MW12014   1.666   1.363   2.422 -0.0190 -0.1440  0.5262
 2272Sol     OW12015   3.075   3.041   7.590  0.3586 -0.6257 -0.1392
 2272Sol     HW12016   3.047   3.018   7.502 -0.2284  0.4164 -0.2323
 2272Sol     HW12017   3.046   3.131   7.602  0.9446 -0.5648  0.9088
 2272Sol     MW12018   3.070   3.047   7.583 -0.0422 -0.0859 -0.2531
 2273Sol     OW12019   0.502   0.175   3.519  0.3092  0.0490  0.1500
 2273Sol     HW12020   0.543   0.255   3.551  1.0419  0.4152 -1.6163
 2273Sol     HW12021   0.571   0.109   3.525  0.6958  0.2877 -1.2700
 2273Sol     MW12022   0.512   0.176   3.522 -0.1084 -0.3104  0.4522
 2274Sol     OW12023   1.912   1.282   6.983 -0.1588  0.1405 -0.4950
 2274Sol     HW12024   1.986   1.305   7.039  0.4063 -0.3349 -1.0308
 2274Sol     HW12025   1.952   1.236   6.909 -1.0186 -0.3335 -0.6676
 2274Sol     MW12026   1.922   1.280   6.982  0.1450  0.5759 -0.4139
 2275Sol     OW12027   0.144   1.309   4.563 -0.2273  0.5119 -0.5554
 2275Sol     HW12028   0.133   1.345   4.651 -0.6113 -0.4395 -0.2059
 2275Sol     HW12029   0.071   1.249   4.552  0.1030  0.2407 -1.3333
 2275Sol     MW12030   0.137   1.307   4.570 -0.3209 -0.3762 -0.0738
 2276Sol     OW12031   2.521   2.413   8.477 -0.0960 -0.1764 -0.7155
 2276Sol     HW12032   2.452   2.433   8.413  0.6820  3.7667 -0.4214
 2276Sol     HW12033   2.481   2.432   8.562  0.5512 -0.3407 -0.3734
 2276Sol     MW12034   2.511   2.416   8.479  0.5324 -0.6413  0.5273
 2277Sol     OW12035   3.282   1.416   1.449  0.3639  0.3278 -0.1557
 2277Sol     HW12036   3.202   1.398   1.400 -0.2120 -0.4229  1.0297
 2277Sol     HW12037   3.343   1.346   1.424  0.0375 -0.1085  0.2606
 2277Sol     MW12038   3.281   1.408   1.442 -0.0991  0.3743 -0.7558
 2278Sol     OW12039   0.460   2.932   4.977  0.5950  0.2035  0.2371
 2278Sol     HW12040   0.478   2.949   5.069  0.8676 -0.8675  0.3835
 2278Sol     HW12041   0.413   2.849   4.976  0.5878  0.2093 -0.5915
 2278Sol     MW12042   0.457   2.926   4.985  0.0258  0.3268 -0.2229
 2279Sol     OW12043   0.382   1.965   6.164 -0.6738 -0.2013 -0.0737
 2279Sol     HW12044   0.345   2.034   6.108  0.0139  0.7560  0.6291
 2279Sol     HW12045   0.306   1.912   6.189 -1.2371  0.3799 -0.5140
 2279Sol     MW12046   0.372   1.967   6.161  0.0905 -0.3541 -0.1626
 2280Sol     OW12047   0.131   0.847   5.689  0.5031  0.1016  0.5309
 2280Sol     HW12048   0.103   0.930   5.728 -0.3295  0.0708  0.0134
 2280Sol     HW12049   0.058   0.787   5.705  0.6888 -0.2603  0.0497
 2280Sol     MW12050   0.122   0.849   5.694  0.3338 -0.3413  0.3247
 2281Sol     OW12051   0.818   0.974   3.600  0.5386 -0.3296  0.0887
 2281Sol     HW12052   0.890   1.013   3.648 -0.5477  1.4486  0.3042
 2281Sol     HW12053   0.739   1.014   3.637 -0.4616 -0.8990 -1.3646
 2281Sol     MW12054   0.817   0.981   3.607 -0.5289 -0.1590  0.2419
 2282Sol     OW12055   1.201   1.516   5.074 -0.3824  0.2065 -1.0435
 2282Sol     HW12056   1.269   1.510   5.142 -1.0192  0.5174 -0.3758
 2282Sol     HW12057   1.213   1.602   5.035 -1.5625  1.0262  0.3357
 2282Sol     MW12058   1.208   1.523   5.076 -0.5422 -0.3263  0.1139
 2283Sol     OW12059   2.079   2.542   9.389  0.1150 -0.4732 -0.4425
 2283Sol     HW12060   1.993   2.583   9.382  0.2802  0.0218  0.3999
 2283Sol     HW12061   2.135   2.593   9.332  0.0902 -0.1494 -0.1784
 2283Sol     MW12062   2.076   2.550   9.384 -0.3420 -0.3666  0.0987
 2284Sol     OW12063   3.000   0.663   5.221 -0.0404  0.2136  0.1599
 2284Sol     HW12064   2.915   0.632   5.255 -0.4323  0.8599 -0.2143
 2284Sol     HW12065   2.981   0.692   5.132  0.5819  0.3342  0.0665
 2284Sol     MW12066   2.990   0.663   5.216  0.3142  0.5323  0.7354
 2285Sol     OW12067   1.209   0.160   4.357 -0.0579  0.5593 -0.1178
 2285Sol     HW12068   1.164   0.151   4.273  2.5248 -0.7622 -1.4299
 2285Sol     HW12069   1.171   0.092   4.412  0.4740 -0.7277 -1.3011
 2285Sol     MW12070   1.202   0.153   4.355  0.0447 -0.1713  0.2415
 2286Sol     OW12071   2.283   0.178   2.488  0.0122 -0.0428  0.7934
 2286Sol     HW12072   2.303   0.221   2.571  0.8759 -0.3585  0.7558
 2286Sol     HW12073   2.205   0.224   2.456  0.7589  1.3127  0.8770
 2286Sol     MW12074   2.278   0.186   2.493 -0.2007  0.3022  0.0164
 2287Sol     OW12075   1.993   1.548   3.288  0.4223 -0.4424  0.8008
 2287Sol     HW12076   2.068   1.513   3.239  0.0370 -0.8641  0.5127
 2287Sol     HW12077   1.955   1.472   3.331 -0.0093 -0.2708  0.7195
 2287Sol     MW12078   1.997   1.538   3.287  0.0666  0.3770 -0.0937
 2288Sol     OW12079   3.318   1.951   5.812  0.5042 -0.0084 -0.7494
 2288Sol     HW12080   3.223   1.940   5.805  0.3471  0.7306  0.1289
 2288Sol     HW12081   3.345   1.983   5.726  0.0388 -0.7616 -1.1838
 2288Sol     MW12082   3.312   1.953   5.804  0.1176 -0.0107  0.2984
 2289Sol     OW12083   2.851   0.220   8.924  0.3557  0.2233 -0.0345
 2289Sol     HW12084   2.899   0.290   8.968  1.9276  0.1236 -1.5583
 2289Sol     HW12085   2.918   0.170   8.878 -0.7313 -2.2995  1.0105
 2289Sol     MW12086   2.861   0.222   8.924 -0.2119  0.3356  0.1186
 2290Sol     OW12087   3.005   2.935   8.032 -0.0749 -0.0852  0.2148
 2290Sol     HW12088   2.967   3.017   8.001 -1.5083 -1.0412 -0.5635
 2290Sol     HW12089   2.949   2.907   8.104  1.1517  0.2612  1.3276
 2290Sol     MW12090   2.997   2.940   8.036  0.1711 -0.1850  0.1667
 2291Sol     OW12091   0.054   3.283   2.877 -0.1959  0.4617 -0.5174
 2291Sol     HW12092   0.121   3.351   2.877  0.3958 -0.1117  0.7201
 2291Sol     HW12093  -0.024   3.327   2.912  0.4478  0.2749  1.2128
 2291Sol     MW12094   0.053   3.293   2.880  0.4732  0.2153 -0.3318
 2292Sol     OW12095   0.857   1.150   5.960 -0.2827 -0.6674  0.7142
 2292Sol     HW12096   0.813   1.066   5.944 -0.7544 -0.2138 -0.5049
 2292Sol     HW12097   0.943   1.141   5.919 -0.3389 -0.5690  0.5690
 2292Sol     MW12098   0.860   1.142   5.955  0.1458  0.4120  0.2105
 2293Sol     OW12099   1.229   3.171   8.253  0.0201 -0.1286 -0.5141
 2293Sol     HW12100   1.166   3.231   8.213 -1.1496 -1.0351 -0.0564
 2293Sol     HW12101   1.178   3.121   8.316  1.2935 -0.5988  0.1635
 2293Sol     MW12102   1.219   3.172   8.255  0.2133 -0.0221 -0.4482
 2294Sol     OW12103   0.202   1.496   5.015 -0.3908  0.4281  0.0950
 2294Sol     HW12104   0.235   1.512   5.103 -0.2306  0.3640  0.0471
 2294Sol     HW12105   0.280   1.497   4.959 -0.5943  1.3643 -0.1716
 2294Sol     MW12106   0.212   1.497   5.018  0.0793 -0.0411 -0.1308
 2295Sol     OW12107   0.939   3.400   6.580  0.4906  0.0098 -0.2358
 2295Sol     HW12108   0.857   3.382   6.627  1.5062 -1.0080  1.1701
 2295Sol     HW12109   0.932   3.493   6.557 -2.4906 -0.8111 -3.0228
 2295Sol     MW12110   0.931   3.407   6.582 -0.1766  0.1888 -0.3577
 2296Sol     OW12111   2.422   3.075   6.332 -0.0929  0.7861 -0.7237
 2296Sol     HW12112   2.371   2.995   6.317  1.5175 -0.3627 -0.2178
 2296Sol     HW12113   2.439   3.109   6.244 -1.0024  0.7107 -0.9324
 2296Sol     MW12114   2.419   3.071   6.323  0.4138 -1.0722  0.2497
 2297Sol     OW12115   2.437   2.463   3.480  0.3455 -0.0639  0.2540
 2297Sol     HW12116   2.397   2.382   3.448 -0.4884 -1.2131  3.9682
 2297Sol     HW12117   2.525   2.437   3.507  0.8703  0.7974 -0.5740
 2297Sol     MW12118   2.441   2.453   3.479  0.3144 -0.4986 -0.0740
 2298Sol     OW12119   2.485   3.403   5.777  0.3829  0.4030 -0.3501
 2298Sol     HW12120   2.551   3.334   5.772  0.6445  0.7206 -1.5334
 2298Sol     HW12121   2.401   3.357   5.777  0.5680  0.0592 -0.7968
 2298Sol     MW12122   2.483   3.393   5.776  0.3398 -0.2374 -0.0855
 2299Sol     OW12123   1.487   2.950   5.648  0.4690  0.4045 -0.3023
 2299Sol     HW12124   1.479   3.031   5.596 -0.2627 -1.5058 -3.3193
 2299Sol     HW12125   1.556   2.900   5.604 -0.7025 -1.6012  0.0767
 2299Sol     MW12126   1.492   2.953   5.639 -0.3443 -0.3744 -0.1790
 2300Sol     OW12127   1.878   2.277   2.616  0.1463  0.2915 -0.2625
 2300Sol     HW12128   1.930   2.306   2.691  0.6813  3.8464 -1.9088
 2300Sol     HW12129   1.799   2.331   2.620 -0.5619 -0.6441 -1.3590
 2300Sol     MW12130   1.875   2.285   2.623  0.2344 -0.4556  0.4285
 2301Sol     OW12131   3.213   2.731   9.560 -0.4487  0.1448 -0.0911
 2301Sol     HW12132   3.272   2.665   9.524 -1.7311 -0.8533 -0.4269
 2301Sol     HW12133   3.270   2.795   9.602  0.8667 -0.6864 -0.5891
 2301Sol     MW12134   3.223   2.731   9.560  0.8372 -0.1296 -0.7824
 2302Sol     OW12135   0.428   0.020   7.248  0.6518  0.6199  0.1051
 2302Sol     HW12136   0.369   0.055   7.181  0.9339  2.0178  0.5852
 2302Sol     HW12137   0.492  -0.032   7.198 -0.2967  0.0201 -0.5174
 2302Sol     MW12138   0.429   0.018   7.237 -0.0756  0.6062 -0.2101
 2303Sol     OW12139   0.156   1.770   2.601 -0.1356  0.8195  0.5243
 2303Sol     HW12140   0.123   1.856   2.575  0.0381  1.3114  1.8743
 2303Sol     HW12141   0.190   1.784   2.689  1.5030 -0.2321  0.0676
 2303Sol     MW12142   0.156   1.779   2.607 -0.1950  0.2832  0.3787
 2304Sol     OW12143   1.054   1.641   7.368 -0.2123  0.1628 -0.5795
 2304Sol     HW12144   0.967   1.602   7.374 -0.4352  0.8057  0.5794
 2304Sol     HW12145   1.114   1.566   7.363 -0.8264 -0.2769 -1.4294
 2304Sol     MW12146   1.052   1.631   7.368  0.6068  0.0656 -0.1648
 2305Sol     OW12147   2.112   2.081   9.583  0.0132  0.0751  0.2240
 2305Sol     HW12148   2.168   2.120   9.650 -0.5986 -2.2711  2.1601
 2305Sol     HW12149   2.028   2.125   9.594 -0.1464 -0.4600  1.1314
 2305Sol     MW12150   2.110   2.089   9.590 -0.3979  0.2714  0.5660
 2306Sol     OW12151   2.103   1.851   2.760  0.3689 -0.3517 -0.1296
 2306Sol     HW12152   2.166   1.783   2.738 -0.9084 -1.3616 -0.7626
 2306Sol     HW12153   2.039   1.807   2.816 -1.0485  0.0313 -1.3971
 2306Sol     MW12154   2.103   1.841   2.763 -0.5146 -0.7726  0.4834
 2307Sol     OW12155   0.953   2.918   5.299 -0.0982  0.3382  0.3492
 2307Sol     HW12156   1.045   2.922   5.325 -0.0313 -0.8038  0.3120
 2307Sol     HW12157   0.924   3.009   5.300  1.2785  0.8034 -0.4853
 2307Sol     MW12158   0.959   2.927   5.301 -0.1846  0.2766 -0.0036
 2308Sol     OW12159   2.218   0.870   4.458 -0.4334 -0.5613  0.3545
 2308Sol     HW12160   2.139   0.817   4.449 -0.9354  0.3493 -0.7780
 2308Sol     HW12161   2.185   0.958   4.474  0.3121  0.0051 -1.0907
 2308Sol     MW12162   2.208   0.873   4.458  0.1437  0.0956 -0.6870
 2309Sol     OW12163   3.058   1.494   8.175 -0.1652  0.0336 -0.3891
 2309Sol     HW12164   3.106   1.555   8.230 -2.5986  0.4765  1.3406
 2309Sol     HW12165   3.060   1.532   8.088  0.8557  1.0649  0.0830
 2309Sol     MW12166   3.062   1.503   8.173 -0.2116  0.1235 -0.3239
 2310Sol     OW12167   0.700   2.520   1.520  0.0308 -0.5308 -0.2446
 2310Sol     HW12168   0.609   2.550   1.521 -0.3652 -1.7394  0.8661
 2310Sol     HW12169   0.736   2.557   1.439 -0.9881  1.2631  0.0771
 2310Sol     MW12170   0.695   2.526   1.512 -0.3807 -0.3901  0.1801
 2311Sol     OW12171   1.336   0.544   6.971  0.3113 -0.3965 -0.1021
 2311Sol     HW12172   1.403   0.540   7.040  1.4262 -2.2283 -1.2487
 2311Sol     HW12173   1.361   0.475   6.910  0.4398  2.4193 -3.3748
 2311Sol     MW12174   1.344   0.538   6.972  0.8308  0.4744 -0.2755
 2312Sol     OW12175   0.521   0.531   1.421 -0.1790  0.2371 -0.4305
 2312Sol     HW12176   0.518   0.617   1.463 -0.8877 -0.2260  0.4857
 2312Sol     HW12177   0.608   0.527   1.381 -0.1990  1.4459 -0.6366
 2312Sol     MW12178   0.528   0.539   1.421 -0.0976 -0.0430  0.5152
 2313Sol     OW12179   0.969   0.563   5.137  0.2660  0.6557  0.0078
 2313Sol     HW12180   1.036   0.495   5.130  0.0505  0.6018 -1.6729
 2313Sol     HW12181   0.965   0.583   5.231  0.3430 -1.6266  0.5167
 2313Sol     MW12182   0.974   0.559   5.145  0.2014  0.1320 -0.6760
 2314Sol     OW12183   3.047   0.970   4.245 -0.4328  0.6480 -0.7052
 2314Sol     HW12184   3.014   0.904   4.184 -1.2701  0.9759 -0.6102
 2314Sol     HW12185   3.109   1.021   4.194  1.0702 -0.9184 -0.4663
 2314Sol     MW12186   3.049   0.968   4.235  0.4430 -0.1934 -0.1540
 2315Sol     OW12187   0.208   1.779   6.217  0.0733  0.3058  0.0964
 2315Sol     HW12188   0.122   1.804   6.184  0.5338  0.6821 -0.8348
 2315Sol     HW12189   0.195   1.691   6.252 -0.7496  0.4684  0.2240
 2315Sol     MW12190   0.199   1.774   6.218 -0.0568  0.2076  0.0300
 2316Sol     OW12191   0.035   1.335   1.704  0.2069 -0.1042  0.4942
 2316Sol     HW12192   0.066   1.246   1.686  1.6715  0.1779  1.5282
 2316Sol     HW12193   0.025   1.375   1.618  0.0967 -1.0952  0.0458
 2316Sol     MW12194   0.037   1.331   1.695 -0.1922 -0.4838 -0.1894
 2317Sol     OW12195   1.232   1.014   9.394 -0.0628  0.2871  0.3266
 2317Sol     HW12196   1.202   0.980   9.478 -2.1531  0.0657 -0.4793
 2317Sol     HW12197   1.322   1.042   9.410 -0.8213  1.4001  2.9605
 2317Sol     MW12198   1.237   1.014   9.403 -0.1644 -0.0183 -0.3546
 2318Sol     OW12199   0.144   2.004   6.802 -0.6248 -0.3020 -0.2393
 2318Sol     HW12200   0.122   2.077   6.861  0.3180 -0.9111  0.8919
 2318Sol     HW12201   0.099   1.929   6.840 -0.8979 -0.4764 -0.9171
 2318Sol     MW12202   0.138   2.004   6.811 -0.1185  0.0092  0.2915
 2319Sol     OW12203   2.977   0.824   8.848 -0.4049  0.1417  0.0102
 2319Sol     HW12204   3.043   0.879   8.806 -3.5865  2.4101 -2.2304
 2319Sol     HW12205   2.930   0.883   8.907 -2.2567 -0.7769 -0.5202
 2319Sol     MW12206   2.979   0.834   8.850 -0.1212 -0.1640 -0.2603
 2320Sol     OW12207   1.741   2.133   4.539 -0.3899 -0.2133  0.2857
 2320Sol     HW12208   1.730   2.063   4.603 -2.9667  1.2651  1.5462
 2320Sol     HW12209   1.784   2.203   4.587 -1.3950  0.5114  0.1595
 2320Sol     MW12210   1.743   2.133   4.549 -0.0904  0.6118  0.2642
 2321Sol     OW12211   3.076   1.873   9.690 -0.2519  0.5156 -0.0648
 2321Sol     HW12212   3.102   1.789   9.651  0.9332  1.3399 -1.0718
 2321Sol     HW12213   3.010   1.908   9.629 -1.5014 -0.1276  0.8815
 2321Sol     MW12214   3.072   1.868   9.681 -0.4275  0.0750  0.1663
 2322Sol     OW12215   0.381   2.006   4.679  0.6203 -0.2902  0.5883
 2322Sol     HW12216   0.361   2.060   4.755  0.8013  0.4426  0.1200
 2322Sol     HW12217   0.461   2.043   4.643  0.2391 -0.2868 -0.2728
 2322Sol     MW12218   0.386   2.014   4.683 -0.1305 -0.2539  0.4438
 2323Sol     OW12219   2.579   0.882   8.381  0.1629 -0.8556  0.2231
 2323Sol     HW12220   2.536   0.906   8.298  2.5423 -1.8896 -1.3728
 2323Sol     HW12221   2.619   0.963   8.412 -0.0767 -0.6259 -0.0649
 2323Sol     MW12222   2.579   0.891   8.376 -0.0379  0.5139 -0.1333
 2324Sol     OW12223   2.480   3.409   6.726  0.6114  0.0810 -0.0588
 2324Sol     HW12224   2.563   3.385   6.767  0.5625 -1.2017 -0.6964
 2324Sol     HW12225   2.423   3.432   6.798  0.9281 -0.8870  0.4974
 2324Sol     MW12226   2.483   3.409   6.736 -0.4171  0.2170 -0.6148
 2325Sol     OW12227   1.731   1.442   4.878  0.4863  0.8624 -0.4279
 2325Sol     HW12228   1.787   1.409   4.808  1.7014  0.2919  0.7958
 2325Sol     HW12229   1.774   1.414   4.959 -2.5044 -1.2229  0.5433
 2325Sol     MW12230   1.740   1.437   4.879 -0.7043 -0.0246  0.6123
 2326Sol     OW12231   2.999   2.807   5.227 -0.2678 -0.1060 -0.1950
 2326Sol     HW12232   3.019   2.766   5.143 -1.8060 -3.0031  0.8116
 2326Sol     HW12233   3.083   2.806   5.273  0.2830  0.2600 -1.1599
 2326Sol     MW12234   3.009   2.803   5.223 -0.1998  0.1174  0.1580
 2327Sol     OW12235   3.288   3.232   6.325  0.2534 -0.4190  0.0184
 2327Sol     HW12236   3.339   3.152   6.329  0.2236 -0.4850 -0.8708
 2327Sol     HW12237   3.197   3.203   6.315  0.3218 -0.2618 -1.0484
 2327Sol     MW12238   3.284   3.223   6.325 -0.1326  0.0629 -0.1735
 2328Sol     OW12239   1.534   2.329   6.431 -0.4880  0.0153  0.5091
 2328Sol     HW12240   1.559   2.403   6.375  1.0044 -2.2500 -1.9387
 2328Sol     HW12241   1.608   2.318   6.490 -0.4001  0.0025  0.3955
 2328Sol     MW12242   1.543   2.335   6.431  0.5277 -0.5002  0.0235
 2329Sol     OW12243   0.183   0.986   3.973  0.1423 -0.3845 -0.0929
 2329Sol     HW12244   0.253   1.001   3.910 -0.0297 -0.4794 -0.3049
 2329Sol     HW12245   0.204   1.045   4.046 -1.2454  1.8682 -1.4822
 2329Sol     MW12246   0.191   0.993   3.974  0.3304 -0.1989 -0.2847
 2330Sol     OW12247   3.214   2.070   5.113  0.3947 -0.0469 -0.0981
 2330Sol     HW12248   3.195   2.006   5.182  0.1623 -0.9340 -0.9686
 2330Sol     HW12249   3.166   2.038   5.037  1.8426  0.0944 -1.0940
 2330Sol     MW12250   3.208   2.061   5.112  0.3632 -0.7585  0.5475
 2331Sol     OW12251   1.056   2.270   7.768  0.0506 -0.3201  0.3018
 2331Sol     HW12252   1.024   2.187   7.804 -3.3017  0.3600 -0.9065
 2331Sol     HW12253   1.097   2.246   7.685 -0.7298 -0.8076  0.0562
 2331Sol     MW12254   1.057   2.260   7.764 -0.7098 -0.0470  0.4512
 2332Sol     OW12255   1.296   0.180   6.063  0.4617 -0.0440 -0.0682
 2332Sol     HW12256   1.291   0.144   5.974 -1.2462 -0.9477  0.3749
 2332Sol     HW12257   1.307   0.103   6.119  0.2420  0.4237  0.6144
 2332Sol     MW12258   1.297   0.170   6.060 -0.0652 -0.4947 -0.2959
 2333Sol     OW12259   1.697   1.316   2.699 -0.2102 -0.1493 -0.0634
 2333Sol     HW12260   1.676   1.347   2.611  0.1004  0.0190 -0.0793
 2333Sol     HW12261   1.618   1.333   2.750 -0.4041 -0.2806 -0.3176
 2333Sol     MW12262   1.688   1.320   2.695  0.2197 -0.5928 -0.3427
 2334Sol     OW12263   1.274   1.059   9.098 -0.0803 -0.0888  0.2479
 2334Sol     HW12264   1.310   1.057   9.187  0.0602  1.0351  0.2211
 2334Sol     HW12265   1.350   1.074   9.042 -0.4581  1.2995  0.1090
 2334Sol     MW12266   1.284   1.060   9.101 -0.1347  0.4667  0.0863
 2335Sol     OW12267   2.004   1.436   4.479  0.1503 -0.4636 -0.1626
 2335Sol     HW12268   2.013   1.358   4.533 -0.0729 -0.3287  0.0694
 2335Sol     HW12269   1.974   1.404   4.394  0.6746 -0.6931 -0.2627
 2335Sol     MW12270   2.002   1.426   4.476 -0.3888 -0.0974 -0.0843
 2336Sol     OW12271   0.004   2.465   6.979 -0.4929 -0.5047 -0.2589
 2336Sol     HW12272  -0.057   2.517   6.927 -1.3464 -0.0372  1.1802
 2336Sol     HW12273  -0.046   2.439   7.056  0.5217 -1.8271 -0.0322
 2336Sol     MW12274  -0.006   2.467   6.981  0.4639  0.1935 -0.1804
 2337Sol     OW12275   1.468   2.926   4.071  0.0222 -0.2001  0.1790
 2337Sol     HW12276   1.504   2.999   4.122  1.8584  0.0935 -1.4622
 2337Sol     HW12277   1.429   2.967   3.995  1.4457 -0.9222 -0.9685
 2337Sol     MW12278   1.468   2.936   4.069 -0.2247 -0.0937  0.0547
 2338Sol     OW12279   1.892   2.825   5.994  0.2936  0.2030 -0.2112
 2338Sol     HW12280   1.870   2.777   5.914 -0.0173  1.7056 -1.0303
 2338Sol     HW12281   1.832   2.791   6.060  0.9527 -1.4777 -0.4478
 2338Sol     MW12282   1.885   2.817   5.993  0.0904 -0.0657  0.3581
 2339Sol     OW12283   1.538   0.870   6.120 -0.5524  0.1685  0.1497
 2339Sol     HW12284   1.546   0.790   6.172 -0.6387 -0.1371 -0.3020
 2339Sol     HW12285   1.528   0.940   6.184  0.3576 -0.0838  0.5731
 2339Sol     MW12286   1.538   0.869   6.130  0.3245 -0.4011  0.1480
 2340Sol     OW12287   0.772   2.791   8.482 -0.2624  0.2274 -0.8560
 2340Sol     HW12288   0.782   2.860   8.416  0.5961  1.3573  0.4494
 2340Sol     HW12289   0.854   2.741   8.477  0.1624  0.8416 -0.0444
 2340Sol     MW12290   0.780   2.793   8.475 -0.0334 -0.0001  0.6675
 2341Sol     OW12291   0.501   2.031   7.223  0.6100  0.4982  0.3961
 2341Sol     HW12292   0.529   2.051   7.312 -0.8863 -1.0263  1.2311
 2341Sol     HW12293   0.420   1.981   7.233  1.0523 -0.7582 -1.7688
 2341Sol     MW12294   0.496   2.028   7.232 -0.5499  1.1375  0.2929
 2342Sol     OW12295   1.323   0.533   6.607 -0.0072 -0.0895 -0.3187
 2342Sol     HW12296   1.391   0.596   6.582 -2.1648  1.7774 -1.7448
 2342Sol     HW12297   1.272   0.579   6.674 -1.1810 -0.5865 -0.8626
 2342Sol     MW12298   1.324   0.543   6.611  0.1485 -0.2044  0.0358
 2343Sol     OW12299   2.150   0.971   4.160 -0.2957  0.1933 -0.5282
 2343Sol     HW12300   2.204   0.963   4.238  0.2220  0.5215 -0.8456
 2343Sol     HW12301   2.079   1.030   4.184 -0.2767  0.0910 -0.2307
 2343Sol     MW12302   2.149   0.975   4.169 -0.3854  0.3792 -0.1221
 2344Sol     OW12303   1.271   1.659   6.411  0.1598  0.2911 -0.0999
 2344Sol     HW12304   1.279   1.679   6.505  1.0686 -0.8988  0.0892
 2344Sol     HW12305   1.358   1.626   6.386 -0.6409 -1.2845 -0.8961
 2344Sol     MW12306   1.279   1.658   6.418  0.1913  0.3848 -0.3019
 2345Sol     OW12307   0.781   1.783   3.270 -0.1441  0.2608 -0.1419
 2345Sol     HW12308   0.688   1.783   3.249 -0.6894  0.8090  2.0786
 2345Sol     HW12309   0.811   1.870   3.242 -0.9411  1.1345  1.6022
 2345Sol     MW12310   0.775   1.791   3.266 -0.0621 -0.5679 -0.4498
 2346Sol     OW12311   2.561   0.850   7.726 -0.2064 -0.0366 -0.8131
 2346Sol     HW12312   2.580   0.944   7.733 -0.9149  0.0985 -0.6013
 2346Sol     HW12313   2.637   0.813   7.682  2.1300 -0.0754  2.9845
 2346Sol     MW12314   2.569   0.855   7.723 -0.0992  0.4327  0.4175
 2347Sol     OW12315   2.473   2.898   3.750  0.3745 -0.2758  0.0431
 2347Sol     HW12316   2.378   2.892   3.752  0.2987  0.7710 -0.2896
 2347Sol     HW12317   2.498   2.862   3.665  0.3234 -1.0524  0.3490
 2347Sol     MW12318   2.467   2.894   3.743  0.3011 -0.0225 -0.1570
 2348Sol     OW12319   2.256   2.386   6.083  0.0004 -0.1535  0.0629
 2348Sol     HW12320   2.187   2.391   6.017  0.7843 -0.0755 -0.7484
 2348Sol     HW12321   2.304   2.468   6.075  0.9370 -0.7132 -0.2117
 2348Sol     MW12322   2.254   2.393   6.076 -0.3924  0.0245 -0.2381
 2349Sol     OW12323   0.690   3.191   2.739 -0.4847 -0.2605 -0.8860
 2349Sol     HW12324   0.664   3.125   2.803  0.0950  0.0902 -0.2873
 2349Sol     HW12325   0.628   3.180   2.667 -2.6844  1.0116  0.7784
 2349Sol     MW12326   0.682   3.184   2.738 -0.0389 -0.0302  0.0599
 2350Sol     OW12327   2.378   0.511   7.079 -0.3481 -0.2712 -0.6161
 2350Sol     HW12328   2.432   0.443   7.041  2.3668  0.6545  1.3835
 2350Sol     HW12329   2.400   0.510   7.173  0.0515  3.5186 -0.5669
 2350Sol     MW12330   2.385   0.505   7.084 -0.5480 -0.3690 -0.0542
 2351Sol     OW12331   3.230   1.529   9.204 -0.3860  0.3501  0.3910
 2351Sol     HW12332   3.293   1.567   9.143 -0.0565 -0.8993 -0.0612
 2351Sol     HW12333   3.150   1.519   9.153 -0.7681  1.3290  0.7837
 2351Sol     MW12334   3.229   1.532   9.194 -0.1173 -0.0158 -0.3843
 2352Sol     OW12335   0.545   0.436   3.654  0.4837  0.4995 -0.3751
 2352Sol     HW12336   0.625   0.482   3.679  0.1004  0.8621  0.2130
 2352Sol     HW12337   0.501   0.496   3.594  0.8953  0.0821 -1.0976
 2352Sol     MW12338   0.548   0.446   3.651 -0.2049  0.6346 -0.0622
 2353Sol     OW12339   2.667   0.829   4.515  0.1452 -0.0432  0.2977
 2353Sol     HW12340   2.738   0.843   4.453  0.6922  0.2847  0.9909
 2353Sol     HW12341   2.588   0.829   4.461  0.6711 -0.4759 -0.4874
 2353Sol     MW12342   2.666   0.830   4.505 -0.4497  0.0213  0.0197
 2354Sol     OW12343   1.227   3.092   3.104  0.0427 -0.1171  0.1869
 2354Sol     HW12344   1.303   3.084   3.045  1.3637 -1.7272  2.0295
 2354Sol     HW12345   1.229   3.183   3.133  0.8142  0.0552 -0.3704
 2354Sol     MW12346   1.234   3.099   3.101  0.8480  0.0154  0.4506
 2355Sol     OW12347   0.886   1.368   5.685 -0.2645 -0.4952 -0.1390
 2355Sol     HW12348   0.822   1.438   5.691  0.5289  0.2106  0.3435
 2355Sol     HW12349   0.879   1.322   5.769 -1.1026 -1.2871 -0.6351
 2355Sol     MW12350   0.880   1.370   5.693  0.3494  0.4168  0.1501
 2356Sol     OW12351   1.232   2.311   4.816  0.5827 -0.9106 -0.3269
 2356Sol     HW12352   1.308   2.306   4.874  0.0964  0.5086  0.4610
 2356Sol     HW12353   1.158   2.288   4.873 -0.1244  2.2743  0.1232
 2356Sol     MW12354   1.232   2.308   4.827 -0.2665  0.3802  0.2071
 2357Sol     OW12355   3.268   2.835   4.785 -0.5451  0.2771 -0.4812
 2357Sol     HW12356   3.217   2.842   4.704 -1.5305  1.1003  0.1975
 2357Sol     HW12357   3.359   2.840   4.756 -0.8494 -0.5469 -1.6463
 2357Sol     MW12358   3.271   2.836   4.775 -0.5336  0.1547 -0.4238
 2358Sol     OW12359   0.288   1.777   4.398  0.5421 -0.4465 -0.4203
 2358Sol     HW12360   0.317   1.792   4.488  1.7082 -2.4451 -0.4280
 2358Sol     HW12361   0.358   1.815   4.344 -0.1035  0.6523 -0.5074
 2358Sol     MW12362   0.297   1.782   4.402 -0.0714  0.4910 -0.1631
 2359Sol     OW12363   1.142   2.023   1.646  0.5838 -0.8224  0.1279
 2359Sol     HW12364   1.127   2.016   1.740 -1.0543 -0.1733 -0.0672
 2359Sol     HW12365   1.111   1.939   1.611  2.2596 -1.5164  0.2839
 2359Sol     MW12366   1.138   2.015   1.651  0.6120 -0.2074  0.4093
 2360Sol     OW12367   2.724   1.163   8.021 -0.0375  0.6250  0.4657
 2360Sol     HW12368   2.669   1.240   8.034 -0.6155  0.6012 -1.6787
 2360Sol     HW12369   2.813   1.194   8.039 -0.3558  1.5879  0.4125
 2360Sol     MW12370   2.727   1.172   8.024 -0.0486 -0.0449  0.0486
 2361Sol     OW12371   1.910   0.842   8.575  0.0936  0.1985 -0.3043
 2361Sol     HW12372   2.000   0.873   8.567  0.2769 -0.3114 -0.2973
 2361Sol     HW12373   1.919   0.752   8.608 -0.4297  0.2672  0.0449
 2361Sol     MW12374   1.919   0.836   8.578 -0.3395  0.1252  0.1070
 2362Sol     OW12375   0.768   2.241   2.840  0.7936  0.3172  0.1494
 2362Sol     HW12376   0.728   2.207   2.920 -0.0905  1.6901  0.2942
 2362Sol     HW12377   0.836   2.301   2.871 -0.6383  2.1087 -0.1190
 2362Sol     MW12378   0.771   2.243   2.850 -0.2765 -0.3689  0.0551
 2363Sol     OW12379   1.045   0.841   8.616  0.3060  0.2236  0.1250
 2363Sol     HW12380   0.959   0.819   8.581  0.5983 -1.4206  0.4019
 2363Sol     HW12381   1.036   0.828   8.711  1.1682 -1.1398  0.0422
 2363Sol     MW12382   1.036   0.838   8.622 -0.6273 -0.2838 -0.1382
 2364Sol     OW12383   0.425   2.211   2.213  0.2199  0.3673 -0.1235
 2364Sol     HW12384   0.371   2.136   2.239 -1.1770  1.0378 -1.0225
 2364Sol     HW12385   0.425   2.268   2.290 -0.3011  0.3297 -0.0911
 2364Sol     MW12386   0.420   2.209   2.222 -0.2882 -0.2469  0.4572
 2365Sol     OW12387   1.500   0.622   6.237 -0.6344 -0.1478 -0.7594
 2365Sol     HW12388   1.406   0.604   6.246 -0.8206 -0.0034 -2.3187
 2365Sol     HW12389   1.532   0.554   6.178  0.1557  0.0915 -0.6142
 2365Sol     MW12390   1.495   0.614   6.232  0.2073 -0.4618  0.6949
 2366Sol     OW12391   2.844   2.441   6.366  0.1819 -0.3799 -0.4256
 2366Sol     HW12392   2.873   2.485   6.286  0.3087 -0.0638 -0.2068
 2366Sol     HW12393   2.756   2.410   6.346 -0.7968  1.9223  0.1587
 2366Sol     MW12394   2.839   2.442   6.357  0.0288 -0.1158 -0.3897
 2367Sol     OW12395   0.154   2.352   8.545 -0.0669 -0.1413 -0.2939
 2367Sol     HW12396   0.197   2.296   8.610  1.4802  0.0408 -1.1443
 2367Sol     HW12397   0.190   2.324   8.461  0.4105  1.8260 -0.7721
 2367Sol     MW12398   0.161   2.345   8.544 -0.8732  0.2792  0.4988
 2368Sol     OW12399   1.351   2.092   9.847  0.1830  0.7798  0.2899
 2368Sol     HW12400   1.266   2.067   9.812  1.6489  1.0477 -3.7080
 2368Sol     HW12401   1.389   2.010   9.878  0.0378 -0.0094 -1.5513
 2368Sol     MW12402   1.347   2.083   9.847  0.1944 -0.3821  0.1767
 2369Sol     OW12403   2.674   1.869   6.967  0.0674 -1.0198 -0.1517
 2369Sol     HW12404   2.652   1.779   6.944  1.1063 -1.5857  1.0476
 2369Sol     HW12405   2.756   1.863   7.015  0.6670  0.6724 -0.9211
 2369Sol     MW12406   2.679   1.860   6.969  0.1959 -0.1624 -0.0255
 2370Sol     OW12407   2.556   2.825   4.854 -0.1782 -0.3661 -0.4454
 2370Sol     HW12408   2.529   2.737   4.882 -1.1586  0.7535  2.2296
 2370Sol     HW12409   2.644   2.835   4.889 -1.0589  0.6829  1.5518
 2370Sol     MW12410   2.561   2.818   4.860  0.4616  0.0236 -0.0438
 2371Sol     OW12411   2.922   3.167   3.967 -0.4783 -0.0278 -0.1953
 2371Sol     HW12412   2.918   3.244   4.024 -0.7449 -2.2512  2.9143
 2371Sol     HW12413   2.835   3.163   3.928 -0.0736  1.9371 -1.3778
 2371Sol     MW12414   2.914   3.174   3.969  0.1653  0.1028  0.0247
 2372Sol     OW12415   1.914   0.851   7.845  0.0831 -0.3260  0.7286
 2372Sol     HW12416   1.857   0.898   7.785 -0.6401 -0.1036  1.5716
 2372Sol     HW12417   1.945   0.918   7.906  0.9618 -0.5105  0.4930
 2372Sol     MW12418   1.912   0.861   7.845 -0.0286  0.6340  0.1666
 2373Sol     OW12419   1.062   0.128   5.495  0.1363 -0.0139  0.3190
 2373Sol     HW12420   1.041   0.200   5.555 -3.2502 -1.1903  0.6077
 2373Sol     HW12421   1.032   0.050   5.540  0.2298 -1.2265 -1.6700
 2373Sol     MW12422   1.058   0.128   5.504  0.7911 -0.4450  0.0556
 2374Sol     OW12423   2.890   0.444   7.709 -0.2370  0.2248  0.1596
 2374Sol     HW12424   2.980   0.445   7.740 -1.0388 -1.1628  2.6836
 2374Sol     HW12425   2.868   0.351   7.704 -0.9793  0.4908 -2.1860
 2374Sol     MW12426   2.896   0.436   7.711 -0.0470 -0.6838 -0.1850
 2375Sol     OW12427   0.554   2.043   3.402 -0.7317 -0.2295  0.2538
 2375Sol     HW12428   0.524   1.955   3.376 -0.6531  0.1689 -1.2244
 2375Sol     HW12429   0.475   2.086   3.435 -0.8481 -0.7363  0.6387
 2375Sol     MW12430   0.544   2.039   3.402  1.2542  0.3670  0.2297
 2376Sol     OW12431   2.744   0.980   3.523  0.8192  0.2043  0.1067
 2376Sol     HW12432   2.711   1.049   3.581 -1.1631  0.1035 -0.8889
 2376Sol     HW12433   2.708   1.001   3.437  1.5681 -1.1451 -0.5504
 2376Sol     MW12434   2.738   0.988   3.521 -0.4250 -0.0969 -0.3332
 2377Sol     OW12435   1.304   2.201   6.334  0.0343  0.7739  0.5430
 2377Sol     HW12436   1.378   2.254   6.362  0.5792  0.1144  0.3700
 2377Sol     HW12437   1.292   2.138   6.405  1.1356 -0.6197 -0.4805
 2377Sol     MW12438   1.309   2.200   6.343 -0.7686 -0.2309  0.2800
 2378Sol     OW12439   1.233   3.062   3.487 -0.0471 -0.0837 -0.5371
 2378Sol     HW12440   1.224   2.990   3.549 -0.1916  0.0034 -0.4596
 2378Sol     HW12441   1.328   3.070   3.475  0.0320  0.6948  0.5829
 2378Sol     MW12442   1.241   3.056   3.491  0.2318  0.1400 -0.6103
 2379Sol     OW12443   0.812   2.922   7.318 -0.1192 -0.2982  0.1907
 2379Sol     HW12444   0.880   2.868   7.279 -0.7240 -0.9101 -0.0314
 2379Sol     HW12445   0.732   2.871   7.308 -0.7423  0.7285 -0.2072
 2379Sol     MW12446   0.811   2.913   7.314 -0.4515 -0.0095  0.4120
 2380Sol     OW12447   1.204   2.427   6.854  0.2327  0.1076  0.7155
 2380Sol     HW12448   1.266   2.490   6.890 -0.4763  1.4873 -0.4003
 2380Sol     HW12449   1.151   2.478   6.793 -2.4141 -0.8846  2.0950
 2380Sol     MW12450   1.205   2.437   6.851  0.7689 -0.2488  0.4486
 2381Sol     OW12451   0.371   0.762   5.790  0.7923  0.1218  0.2636
 2381Sol     HW12452   0.280   0.783   5.769  1.0572  1.1228  0.0926
 2381Sol     HW12453   0.421   0.836   5.756  1.8196 -1.0711 -0.9142
 2381Sol     MW12454   0.367   0.770   5.785 -0.2620 -0.4346  0.7403
 2382Sol     OW12455   2.901   2.835   6.886  0.6915 -0.0131 -0.2976
 2382Sol     HW12456   2.844   2.900   6.845 -0.7900  0.2414  2.0352
 2382Sol     HW12457   2.861   2.751   6.867 -0.2266  0.1325  0.9205
 2382Sol     MW12458   2.892   2.834   6.881  0.1266  0.1741  0.6080
 2383Sol     OW12459   0.471   1.080   8.603 -0.3622  0.0210  0.1647
 2383Sol     HW12460   0.462   1.078   8.507  1.0281 -1.4623  0.0498
 2383Sol     HW12461   0.398   1.026   8.634 -1.9492  2.0285  0.0647
 2383Sol     MW12462   0.463   1.075   8.597  0.3071 -0.2410 -0.1571
 2384Sol     OW12463   2.264   3.171   3.647 -0.2572  0.2105 -0.9990
 2384Sol     HW12464   2.225   3.090   3.677 -0.2751  1.1770  1.7413
 2384Sol     HW12465   2.358   3.160   3.662 -0.2275  0.5589 -0.9048
 2384Sol     MW12466   2.269   3.163   3.651 -0.3413 -0.1566  0.0620
 2385Sol     OW12467   2.681   0.948   6.339  0.3637 -0.1166 -0.4137
 2385Sol     HW12468   2.696   0.898   6.259  0.0512 -0.8501 -0.0124
 2385Sol     HW12469   2.653   0.883   6.403  0.2409  0.5280  0.1876
 2385Sol     MW12470   2.680   0.938   6.337  0.0161 -0.1804  0.3223
 2386Sol     OW12471   0.008   2.838   9.171  0.1405 -0.1076  0.3618
 2386Sol     HW12472  -0.078   2.844   9.213  0.7190  1.9961  1.3214
 2386Sol     HW12473  -0.009   2.860   9.080 -0.0287  2.6073  1.0023
 2386Sol     MW12474  -0.001   2.840   9.167  0.0969  0.2146 -0.3508
 2387Sol     OW12475   0.611   1.855   9.770 -0.0685  0.0162 -0.3858
 2387Sol     HW12476   0.555   1.786   9.805 -0.3330  0.3276 -0.1964
 2387Sol     HW12477   0.552   1.929   9.753  0.4652  0.7658  0.9275
 2387Sol     MW12478   0.601   1.856   9.772 -0.1196  0.2189  0.5825
 2388Sol     OW12479   1.229   0.618   6.187  0.0994 -0.2785 -0.0558
 2388Sol     HW12480   1.203   0.544   6.242  0.9655 -0.0803  0.6369
 2388Sol     HW12481   1.162   0.684   6.201  1.4248  0.6256  2.4968
 2388Sol     MW12482   1.221   0.617   6.193 -0.1150  0.1833 -0.1656
 2389Sol     OW12483   2.899   2.108   7.703 -0.4015 -0.1336 -1.1373
 2389Sol     HW12484   2.983   2.150   7.689  0.1423 -0.9267 -0.3245
 2389Sol     HW12485   2.842   2.178   7.736  0.1165  0.2674 -1.0941
 2389Sol     MW12486   2.901   2.118   7.705 -0.8099  0.4651 -0.0769
 2390Sol     OW12487   0.505   2.838   6.620 -0.2791 -0.2264 -0.1835
 2390Sol     HW12488   0.450   2.857   6.544 -0.5770 -0.3574 -0.0031
 2390Sol     HW12489   0.591   2.871   6.597 -0.3671 -0.2821 -0.5858
 2390Sol     MW12490   0.508   2.843   6.611  0.1937 -0.0476  0.3971
 2391Sol     OW12491   1.625   0.183   3.133 -0.4546 -0.0067 -0.1478
 2391Sol     HW12492   1.608   0.259   3.078 -0.1649  0.0378 -0.1774
 2391Sol     HW12493   1.579   0.110   3.090 -1.1609  0.2551  0.1600
 2391Sol     MW12494   1.620   0.183   3.125 -0.8945  0.1782 -0.1312
 2392Sol     OW12495   2.753   3.364   6.850 -0.0508 -0.1444 -0.3031
 2392Sol     HW12496   2.789   3.436   6.902  0.5200 -0.5579 -0.1222
 2392Sol     HW12497   2.810   3.360   6.773  0.2096 -0.7186 -0.0776
 2392Sol     MW12498   2.761   3.370   6.848  0.0404 -0.3371  0.2724
 2393Sol     OW12499   2.049   2.152   5.994  0.0245  0.0296  0.1362
 2393Sol     HW12500   2.098   2.116   5.920 -0.6352  0.2992 -0.4392
 2393Sol     HW12501   1.960   2.121   5.982 -0.0621 -0.0217  0.8896
 2393Sol     MW12502   2.046   2.146   5.986 -0.0387 -0.0651  0.4710
 2394Sol     OW12503   1.931   1.124   8.262 -0.0204  0.4010  0.7632
 2394Sol     HW12504   1.858   1.160   8.212 -1.5620 -3.1611  0.2708
 2394Sol     HW12505   1.895   1.108   8.350  0.5879 -0.0550  0.9357
 2394Sol     MW12506   1.921   1.126   8.266  0.1212 -0.2364 -0.3102
 2395Sol     OW12507   1.785   2.364   8.003 -0.0200 -0.1467  0.4665
 2395Sol     HW12508   1.702   2.370   7.957  0.2470  0.2706  0.0367
 2395Sol     HW12509   1.787   2.441   8.061  0.7221  0.6529 -0.6126
 2395Sol     MW12510   1.778   2.371   8.004  0.4299 -0.2551 -0.5099
 2396Sol     OW12511   2.720   1.209   5.388 -0.0952  0.0695 -0.0026
 2396Sol     HW12512   2.711   1.162   5.471 -1.1732 -0.2552 -0.2828
 2396Sol     HW12513   2.764   1.147   5.330 -0.9213 -0.3702 -0.1764
 2396Sol     MW12514   2.723   1.199   5.390 -0.1958 -0.1245  0.2624
 2397Sol     OW12515   2.446   3.069   6.850  0.2805 -0.6056  0.4256
 2397Sol     HW12516   2.383   3.091   6.919 -1.9692 -1.4665 -1.3013
 2397Sol     HW12517   2.396   3.076   6.769  2.8793  0.3154 -1.1349
 2397Sol     MW12518   2.436   3.072   6.849  0.3204  0.8655  0.6908
 2398Sol     OW12519   2.632   2.540   2.516  0.5453  0.3279  0.3671
 2398Sol     HW12520   2.616   2.630   2.547  0.8228  1.1575 -1.8127
 2398Sol     HW12521   2.688   2.551   2.439  0.9697 -1.7648  0.3520
 2398Sol     MW12522   2.636   2.549   2.512  0.1454 -0.2339  0.5010
 2399Sol     OW12523   0.910   1.715   7.782  0.1448 -0.4240 -0.0449
 2399Sol     HW12524   0.866   1.739   7.701 -0.1889 -1.8535 -0.2994
 2399Sol     HW12525   0.936   1.799   7.821  1.0265  0.2560 -2.0218
 2399Sol     MW12526   0.909   1.725   7.779  0.1241 -0.0733 -0.1825
 2400Sol     OW12527   1.371   0.872   5.881  0.1604 -0.3108  0.0881
 2400Sol     HW12528   1.407   0.849   5.966  1.3610 -2.1650 -0.8766
 2400Sol     HW12529   1.415   0.953   5.857  1.6775 -1.1162  0.1287
 2400Sol     MW12530   1.378   0.877   5.886  0.0214 -0.2155  0.1314
 2401Sol     OW12531   1.160   0.759   9.889 -0.0890 -0.1480  0.5102
 2401Sol     HW12532   1.193   0.670   9.902 -0.9615 -0.3174  1.6252
 2401Sol     HW12533   1.078   0.747   9.840  1.5158  0.2763 -2.3935
 2401Sol     MW12534   1.156   0.750   9.886  0.4181 -0.0195 -0.3248
 2402Sol     OW12535   1.282   2.950   7.954 -0.7095 -0.1302 -0.1919
 2402Sol     HW12536   1.235   3.033   7.950 -0.7590 -0.0317  1.7523
 2402Sol     HW12537   1.213   2.884   7.964 -0.5721 -0.2273  0.1112
 2402Sol     MW12538   1.272   2.951   7.955 -0.1029 -0.1935 -0.1420
 2403Sol     OW12539   2.921   1.612   7.655 -0.1124  0.2697 -0.0348
 2403Sol     HW12540   2.875   1.689   7.688 -1.5373  0.6701 -2.7824
 2403Sol     HW12541   2.983   1.646   7.590  0.4327 -0.7467 -0.0599
 2403Sol     MW12542   2.922   1.622   7.652 -0.1194  0.3646 -1.1459
 2404Sol     OW12543   1.671   1.239   3.667  0.2801  0.4348  0.1213
 2404Sol     HW12544   1.596   1.290   3.636  0.5940  0.4470 -0.6181
 2404Sol     HW12545   1.665   1.156   3.620  2.3297  1.4947 -2.1213
 2404Sol     MW12546   1.663   1.236   3.660 -0.2634  0.7175 -0.5880
 2405Sol     OW12547   2.283   0.141   4.457 -0.0219  0.1361  0.3915
 2405Sol     HW12548   2.191   0.166   4.451  0.3266  1.1504 -0.8250
 2405Sol     HW12549   2.281   0.047   4.480 -1.3657 -0.3699 -1.7407
 2405Sol     MW12550   2.275   0.134   4.459  0.0611 -0.3135  0.1270
 2406Sol     OW12551   1.521   1.147   1.784  0.0110 -0.0772  0.2062
 2406Sol     HW12552   1.553   1.215   1.843  0.1915 -0.0746  0.1069
 2406Sol     HW12553   1.569   1.068   1.810 -1.4937 -0.5771  1.4830
 2406Sol     MW12554   1.528   1.146   1.792 -0.0663 -0.3793 -0.3560
 2407Sol     OW12555   3.032   2.388   5.845  0.4018 -0.4013  0.1456
 2407Sol     HW12556   3.115   2.432   5.825 -0.4557  1.5564  0.7621
 2407Sol     HW12557   3.045   2.350   5.932  1.1668 -1.4621 -0.4150
 2407Sol     MW12558   3.041   2.389   5.851 -0.1564  0.9925  0.3038
 2408Sol     OW12559   1.328   2.129   7.986  0.2581 -0.1432 -0.1928
 2408Sol     HW12560   1.399   2.071   8.013  0.2539 -0.7221 -1.4035
 2408Sol     HW12561   1.258   2.112   8.050  0.8475 -0.2599  0.4353
 2408Sol     MW12562   1.328   2.122   7.995  0.1214 -0.5403 -0.3597
 2409Sol     OW12563   2.452   1.441   7.812 -0.4763  0.9901 -1.0413
 2409Sol     HW12564   2.471   1.532   7.834  0.6557  0.3723  0.5721
 2409Sol     HW12565   2.537   1.404   7.790 -0.4275 -0.5668  1.6272
 2409Sol     MW12566   2.461   1.446   7.812  0.4541 -0.7010 -0.1716
 2410Sol     OW12567   0.032   3.252   1.768 -0.2704 -0.8071  0.7577
 2410Sol     HW12568  -0.003   3.255   1.857 -2.1143  0.5772  0.0101
 2410Sol     HW12569   0.018   3.340   1.733 -2.1342 -2.0635 -1.8447
 2410Sol     MW12570   0.027   3.260   1.772 -0.2500 -0.4630 -0.0600
 2411Sol     OW12571   1.783   2.516   6.909  0.2364 -0.8032 -0.6095
 2411Sol     HW12572   1.817   2.559   6.988 -0.6832 -1.9036  0.4179
 2411Sol     HW12573   1.860   2.502   6.854  1.2551 -1.8885  1.0145
 2411Sol     MW12574   1.793   2.518   6.911  0.3508  0.3468 -0.0662
 2412Sol     OW12575   2.695   2.940   4.333  0.0324 -0.1367 -0.4852
 2412Sol     HW12576   2.677   2.903   4.247  1.1295 -0.4823 -0.5769
 2412Sol     HW12577   2.791   2.935   4.342 -0.1469 -0.9555  1.1344
 2412Sol     MW12578   2.702   2.937   4.326 -0.3523  0.0712 -0.1033
 2413Sol     OW12579   2.393   3.382   2.449  0.1360  0.4729  0.3022
 2413Sol     HW12580   2.354   3.469   2.457 -0.4153  0.3886 -1.1378
 2413Sol     HW12581   2.364   3.334   2.527  0.2626  1.5091  0.9853
 2413Sol     MW12582   2.387   3.385   2.456 -0.1387 -0.4837  0.3018
 2414Sol     OW12583   1.077   0.014   8.479  0.7881  0.2238 -0.4894
 2414Sol     HW12584   1.147  -0.039   8.517 -0.1012 -1.1626 -0.6992
 2414Sol     HW12585   1.035   0.056   8.554  1.5289  0.6511 -0.3180
 2414Sol     MW12586   1.079   0.013   8.489 -0.1908 -0.6267 -0.7043
 2415Sol     OW12587   1.260   2.643   6.259  0.1801 -0.6170 -0.0538
 2415Sol     HW12588   1.167   2.663   6.243  0.4462 -0.0172 -0.8646
 2415Sol     HW12589   1.267   2.549   6.244 -0.1396 -0.5291 -0.7475
 2415Sol     MW12590   1.252   2.637   6.257  0.2651  0.1597 -0.2645
 2416Sol     OW12591   2.882   1.757   3.799 -0.4222 -0.1785  0.5358
 2416Sol     HW12592   2.902   1.772   3.707 -0.3946  1.4280  0.7920
 2416Sol     HW12593   2.964   1.728   3.838  0.0954  1.2253  0.4906
 2416Sol     MW12594   2.891   1.755   3.795  0.3990  0.2026  0.0589
 2417Sol     OW12595   0.679   2.821   2.728 -0.1742  0.4920 -0.1831
 2417Sol     HW12596   0.666   2.726   2.724  0.5974  0.3511  0.5009
 2417Sol     HW12597   0.634   2.848   2.808 -0.9895  0.8136 -0.7391
 2417Sol     MW12598   0.674   2.815   2.735 -0.4388  0.1989  0.2998
 2418Sol     OW12599   2.402   0.118   5.119 -0.5808 -0.0429 -0.5110
 2418Sol     HW12600   2.395   0.207   5.153 -2.5709 -0.1050 -0.7260
 2418Sol     HW12601   2.453   0.128   5.038  1.2258  0.5528  0.6667
 2418Sol     MW12602   2.406   0.127   5.114 -0.4248  0.0022  0.0350
 2419Sol     OW12603   2.046   0.589   5.561 -0.9412  0.1771 -0.0268
 2419Sol     HW12604   2.045   0.510   5.616  0.4715  0.6901  0.7779
 2419Sol     HW12605   2.065   0.660   5.622 -1.1760  0.9982 -0.9063
 2419Sol     MW12606   2.048   0.588   5.571  0.0011 -0.8828 -0.3491
 2420Sol     OW12607   0.716   0.684   4.339 -0.1084  0.1729 -0.2475
 2420Sol     HW12608   0.652   0.708   4.272 -0.8354  2.8248  1.3023
 2420Sol     HW12609   0.664   0.647   4.410  0.4019 -0.4617 -0.2026
 2420Sol     MW12610   0.706   0.683   4.339 -0.8177  0.3949  0.1125
 2421Sol     OW12611   2.033   1.974   4.017 -0.4921 -0.3350  0.7451
 2421Sol     HW12612   1.990   2.029   3.952 -1.6051 -1.2908  0.6785
 2421Sol     HW12613   2.051   2.034   4.090  0.6870  0.7170 -0.3828
 2421Sol     MW12614   2.031   1.985   4.018 -0.2991  0.2068 -0.2054
 2422Sol     OW12615   1.841   0.329   7.699 -0.3842  0.5393 -0.2828
 2422Sol     HW12616   1.777   0.307   7.766 -0.2657  0.2351 -0.2673
 2422Sol     HW12617   1.791   0.373   7.630 -0.5705  0.4988 -0.1713
 2422Sol     MW12618   1.831   0.331   7.698 -0.4240  0.8198 -0.8742
 2423Sol     OW12619   1.397   0.444   7.926  0.3533  0.0155  0.1364
 2423Sol     HW12620   1.312   0.403   7.942  0.3099 -0.1409 -0.4883
 2423Sol     HW12621   1.417   0.489   8.008 -1.1288  1.4903 -0.2833
 2423Sol     MW12622   1.391   0.444   7.935  0.0189  0.0920 -0.1561
 2424Sol     OW12623   0.485   2.982   5.256 -0.2317  0.0847 -0.4809
 2424Sol     HW12624   0.540   3.037   5.313 -1.8743 -0.2149  1.4421
 2424Sol     HW12625   0.472   2.901   5.307 -1.2674 -0.4246 -1.5435
 2424Sol     MW12626   0.489   2.979   5.266  0.6527  0.3586 -0.4040
 2425Sol     OW12627   1.122   1.437   2.586 -0.3525  0.5528  0.6342
 2425Sol     HW12628   1.037   1.451   2.544 -0.7240 -0.7837  0.9061
 2425Sol     HW12629   1.186   1.472   2.524 -0.9332 -0.7167 -0.7205
 2425Sol     MW12630   1.120   1.441   2.577  0.5420 -0.4420 -0.2461
 2426Sol     OW12631   3.151   0.280   3.261  0.1074  0.0610 -0.7091
 2426Sol     HW12632   3.236   0.238   3.277  0.0377  0.1760  0.0107
 2426Sol     HW12633   3.106   0.222   3.201 -0.1122 -1.0518  0.5050
 2426Sol     MW12634   3.155   0.271   3.257  0.2184 -0.0431 -0.0547
 2427Sol     OW12635   3.124   2.953   5.864  0.6326  0.5265  0.1966
 2427Sol     HW12636   3.080   2.995   5.939  1.5912 -0.0083  1.0629
 2427Sol     HW12637   3.217   2.967   5.880  0.8877 -0.5087 -0.3608
 2427Sol     MW12638   3.128   2.958   5.872  0.0576  0.0731  0.1145
 2428Sol     OW12639   2.044   0.388   1.410  0.2088  0.5660 -0.1270
 2428Sol     HW12640   2.122   0.348   1.449 -0.2518 -0.8033 -0.5828
 2428Sol     HW12641   1.976   0.322   1.418 -1.2216  2.1825  1.2527
 2428Sol     MW12642   2.045   0.378   1.414 -0.4977 -0.3815  0.3279
 2429Sol     OW12643   0.755   1.267   9.336 -0.2914  0.0287  0.5777
 2429Sol     HW12644   0.700   1.237   9.409 -0.6955 -0.0769  0.2352
 2429Sol     HW12645   0.835   1.215   9.342 -0.3997 -0.1059  0.8391
 2429Sol     MW12646   0.757   1.259   9.343  0.4405 -0.0634  0.1468
 2430Sol     OW12647   2.635   1.841   6.211  0.2810  0.0387  0.3239
 2430Sol     HW12648   2.699   1.844   6.282 -1.7808  0.8193  2.1891
 2430Sol     HW12649   2.575   1.912   6.230 -0.8519 -0.3490 -1.6947
 2430Sol     MW12650   2.636   1.847   6.219 -0.1531 -0.1878  0.1865
 2431Sol     OW12651   1.447   2.633   8.140 -0.2862 -0.8653  0.1576
 2431Sol     HW12652   1.423   2.570   8.071  1.4714 -2.9038  1.3493
 2431Sol     HW12653   1.363   2.667   8.171 -1.2757 -2.5422 -0.5843
 2431Sol     MW12654   1.437   2.630   8.137 -0.2069  0.9601 -0.1008
 2432Sol     OW12655   1.749   2.157   6.856  0.8336 -0.3313 -0.2804
 2432Sol     HW12656   1.843   2.144   6.870  0.8549  0.1144  0.0045
 2432Sol     HW12657   1.721   2.206   6.933 -0.2391 -3.1797  1.1969
 2432Sol     MW12658   1.755   2.160   6.865  0.1288  0.5942 -0.0761
 2433Sol     OW12659   3.169   2.215   7.604 -0.1287  0.4731  0.1163
 2433Sol     HW12660   3.239   2.178   7.658  0.4286  0.6287 -0.4956
 2433Sol     HW12661   3.178   2.170   7.520 -1.5965 -0.4624  0.4470
 2433Sol     MW12662   3.176   2.207   7.602  0.4712 -0.4504 -0.4834
 2434Sol     OW12663   1.095   2.424   6.343 -0.1392 -0.0102 -0.2181
 2434Sol     HW12664   1.017   2.385   6.304  0.5862  0.9000 -2.7486
 2434Sol     HW12665   1.154   2.350   6.360 -0.0115 -0.3646 -2.0426
 2434Sol     MW12666   1.094   2.414   6.341 -0.1492  0.0038 -0.5101
 2435Sol     OW12667   1.278   2.884   4.516 -0.6185 -0.6676 -0.1062
 2435Sol     HW12668   1.289   2.956   4.578 -1.0174 -1.1089  0.4806
 2435Sol     HW12669   1.367   2.855   4.497 -0.4270  0.2942 -0.7247
 2435Sol     MW12670   1.287   2.888   4.520 -0.3981 -0.1856  0.2771
 2436Sol     OW12671   0.846   0.498   8.432 -0.3235 -0.5315 -0.1097
 2436Sol     HW12672   0.771   0.556   8.445  0.7531  0.8076  0.1661
 2436Sol     HW12673   0.902   0.514   8.507  0.5708 -1.0307 -0.6659
 2436Sol     MW12674   0.844   0.504   8.440  0.3846 -0.3468 -0.6394
 2437Sol     OW12675   0.057   2.481   3.042 -0.0433 -0.2921  0.0520
 2437Sol     HW12676   0.024   2.547   3.103  0.7326  0.1775 -0.0330
 2437Sol     HW12677   0.049   2.521   2.956  0.7809 -0.1594  0.0344
 2437Sol     MW12678   0.054   2.490   3.040 -0.1450  0.3062 -0.1486
 2438Sol     OW12679   2.704   1.095   8.489  0.6701  0.3154 -0.5602
 2438Sol     HW12680   2.671   1.064   8.573 -1.9547  2.2427 -0.8315
 2438Sol     HW12681   2.792   1.129   8.509  1.1095 -1.6065  0.8732
 2438Sol     MW12682   2.709   1.095   8.498  0.1783  0.0507 -0.3347
 2439Sol     OW12683   0.441   1.680   6.883 -0.2915 -0.0185  0.6631
 2439Sol     HW12684   0.479   1.628   6.954  0.6427 -0.9843 -0.5087
 2439Sol     HW12685   0.516   1.725   6.844 -0.7560  0.2855  0.1203
 2439Sol     MW12686   0.451   1.679   6.886 -0.4417  0.4567 -0.5709
 2440Sol     OW12687   3.183   0.215   2.843  0.0198  0.0310 -0.1544
 2440Sol     HW12688   3.194   0.250   2.755  1.4829  0.3341  0.1440
 2440Sol     HW12689   3.248   0.261   2.896  0.8835 -1.9745  0.5753
 2440Sol     MW12690   3.189   0.222   2.840 -0.0404  0.6195  0.1031
 2441Sol     OW12691   0.463   0.753   6.437  0.4773 -0.4705  0.6000
 2441Sol     HW12692   0.467   0.783   6.346  0.9454  0.6847  0.9999
 2441Sol     HW12693   0.553   0.735   6.461  0.4427  0.0374  1.1104
 2441Sol     MW12694   0.471   0.754   6.431 -0.3069  0.1682 -0.4468
 2442Sol     OW12695   0.738   0.667   7.864 -0.0377 -1.0513  0.4725
 2442Sol     HW12696   0.693   0.623   7.937  2.3945 -0.1108  2.6059
 2442Sol     HW12697   0.829   0.640   7.873  0.4601 -0.1403 -1.6681
 2442Sol     MW12698   0.742   0.660   7.871 -0.1336 -0.1371 -0.1100
 2443Sol     OW12699   1.550   3.259   2.754  0.2304  0.4008 -0.0485
 2443Sol     HW12700   1.584   3.211   2.679  0.4729  2.6381 -1.4130
 2443Sol     HW12701   1.461   3.227   2.765 -0.3539  1.1656 -2.2889
 2443Sol     MW12702   1.545   3.252   2.749 -0.1379 -0.2076  0.3756
 2444Sol     OW12703   0.651   2.904   8.026  0.2258  0.1875  0.2158
 2444Sol     HW12704   0.734   2.872   8.062  0.7389  1.1091 -0.1243
 2444Sol     HW12705   0.664   2.998   8.016 -0.8168  0.3175  0.0232
 2444Sol     MW12706   0.660   2.910   8.028 -0.2716 -0.2318  0.0543
 2445Sol     OW12707   2.166   1.711   7.404 -0.3176 -0.3473  0.8403
 2445Sol     HW12708   2.086   1.762   7.393  0.1137  0.3682  0.9293
 2445Sol     HW12709   2.170   1.654   7.327 -0.7926 -0.2228  0.7251
 2445Sol     MW12710   2.159   1.711   7.396 -0.1370  0.3126 -0.1533
 2446Sol     OW12711   0.836   0.357   4.659 -0.2481 -0.3871 -0.4307
 2446Sol     HW12712   0.833   0.439   4.709 -1.9901 -0.9902  0.4978
 2446Sol     HW12713   0.929   0.346   4.638 -0.0219  1.9492 -0.7972
 2446Sol     MW12714   0.844   0.363   4.662 -0.3010  0.0051  0.0965
 2447Sol     OW12715   2.910   2.684   1.396  0.1464  0.7199 -0.3173
 2447Sol     HW12716   2.816   2.686   1.383 -0.0504  2.1098  1.1701
 2447Sol     HW12717   2.925   2.735   1.475  2.1540  0.5575 -0.5516
 2447Sol     MW12718   2.903   2.689   1.402  0.6098 -0.2715  0.0927
 2448Sol     OW12719   2.742   2.135   2.625 -0.6860  0.2784 -0.0411
 2448Sol     HW12720   2.654   2.122   2.659 -0.4217  1.0961  1.0106
 2448Sol     HW12721   2.766   2.223   2.655  0.4294  0.1138 -0.4334
 2448Sol     MW12722   2.737   2.142   2.631  0.3038  0.1271 -0.2728
 2449Sol     OW12723   2.960   0.229   7.405 -0.7429 -0.4504  0.6012
 2449Sol     HW12724   3.002   0.159   7.354  0.3715  0.7391 -0.1365
 2449Sol     HW12725   2.916   0.183   7.477  0.0516 -1.8992  0.1816
 2449Sol     MW12726   2.959   0.219   7.407  0.3183  0.1127 -0.3801
 2450Sol     OW12727   2.824   3.005   7.079  0.6186  0.0653  0.9143
 2450Sol     HW12728   2.744   3.046   7.046 -0.8687 -1.2799  2.8092
 2450Sol     HW12729   2.831   2.923   7.031  0.3427 -0.2672  1.4435
 2450Sol     MW12730   2.817   3.002   7.072 -0.0020  0.5463  0.7067
 2451Sol     OW12731   2.750   1.547   6.323 -0.2603 -0.0817 -0.3501
 2451Sol     HW12732   2.782   1.458   6.340 -0.8350 -0.1656  0.3125
 2451Sol     HW12733   2.656   1.537   6.315 -0.1510  0.1980 -2.0599
 2451Sol     MW12734   2.745   1.538   6.324 -0.0629  0.5596 -0.0400
 2452Sol     OW12735   1.532   2.209   2.386 -0.2164  0.1452  0.0453
 2452Sol     HW12736   1.451   2.177   2.346 -2.0089  1.5807  2.3597
 2452Sol     HW12737   1.561   2.280   2.329 -0.5601 -0.3878 -0.8038
 2452Sol     MW12738   1.527   2.212   2.378 -0.4221 -0.3260 -0.6546
 2453Sol     OW12739   0.935   2.927   2.619 -0.4527  0.4292 -0.8520
 2453Sol     HW12740   0.909   2.999   2.561 -0.2045  1.4640  0.2891
 2453Sol     HW12741   0.862   2.919   2.680  1.0017  2.0596  1.1780
 2453Sol     MW12742   0.926   2.933   2.619 -0.2523 -0.3043  0.1864
 2454Sol     OW12743   2.589   0.935   4.742  0.4416 -0.2776  0.2196
 2454Sol     HW12744   2.627   0.894   4.663  1.5587 -0.8742  1.0512
 2454Sol     HW12745   2.505   0.891   4.753  1.4771 -2.1357  0.8977
 2454Sol     MW12746   2.585   0.927   4.736  0.1674 -0.0565  0.2383
 2455Sol     OW12747   0.782   0.128   9.064  0.5981  0.1322  0.3371
 2455Sol     HW12748   0.836   0.203   9.041 -0.4577  0.1468 -2.2922
 2455Sol     HW12749   0.768   0.082   8.982 -3.9142  0.5082  0.7291
 2455Sol     MW12750   0.785   0.131   9.055 -0.2447  0.2325  0.2346
 2456Sol     OW12751   1.269   2.365   9.403 -0.1681 -0.0804  0.1758
 2456Sol     HW12752   1.283   2.270   9.397 -0.7261 -0.2562  1.4539
 2456Sol     HW12753   1.345   2.398   9.450 -0.0011  0.0938 -0.2203
 2456Sol     MW12754   1.277   2.359   9.407 -0.1180  1.2327 -0.1219
 2457Sol     OW12755   0.187   1.697   2.079  0.6394 -0.7849 -0.2757
 2457Sol     HW12756   0.212   1.630   2.016  1.9912 -0.6667  0.1334
 2457Sol     HW12757   0.253   1.765   2.070  0.1831 -0.2300  0.4552
 2457Sol     MW12758   0.195   1.697   2.073  0.0322  0.1365 -0.0527
 2458Sol     OW12759   0.494   2.733   9.252  0.1192  0.1967  1.0964
 2458Sol     HW12760   0.411   2.759   9.212  0.6523 -0.3210 -0.3635
 2458Sol     HW12761   0.527   2.814   9.293 -1.8117  0.0574  3.0241
 2458Sol     MW12762   0.490   2.743   9.252  0.3017 -0.0288 -0.5301
 2459Sol     OW12763   0.375   2.250   3.497 -0.2522  0.6974  0.3725
 2459Sol     HW12764   0.318   2.241   3.421  0.5554 -0.3764 -0.1285
 2459Sol     HW12765   0.327   2.207   3.568 -0.6738  1.0203  0.2818
 2459Sol     MW12766   0.366   2.245   3.497 -0.2733 -0.2072  0.2276
 2460Sol     OW12767   0.452   2.779   8.184 -0.0202 -0.1498 -0.0301
 2460Sol     HW12768   0.510   2.824   8.122 -0.5228 -1.7264 -1.6635
 2460Sol     HW12769   0.480   2.688   8.182 -0.7511 -0.4149  1.2733
 2460Sol     MW12770   0.460   2.775   8.178  0.1724 -0.0769  0.4041
 2461Sol     OW12771   2.667   1.872   3.549  0.6109  0.2908 -0.4784
 2461Sol     HW12772   2.602   1.938   3.572  0.7490  0.1308  0.3885
 2461Sol     HW12773   2.751   1.917   3.557  0.7076 -0.0064  0.1585
 2461Sol     MW12774   2.669   1.882   3.551 -0.6265  0.0665  0.0729
 2462Sol     OW12775   0.992   2.699   6.191 -0.1223  0.1064 -0.1477
 2462Sol     HW12776   0.992   2.672   6.099  1.3092  0.0492 -0.1465
 2462Sol     HW12777   0.981   2.794   6.188  0.4710  0.1723 -0.4217
 2462Sol     MW12778   0.991   2.705   6.182  0.2803 -0.5498  0.4470
 2463Sol     OW12779   2.360   0.466   6.145  0.2685 -0.1623  0.4696
 2463Sol     HW12780   2.420   0.392   6.139 -0.4423 -0.9586  2.8553
 2463Sol     HW12781   2.414   0.539   6.173  0.7548 -0.0302 -0.7760
 2463Sol     MW12782   2.370   0.466   6.147  0.6259  0.2714  0.0732
 2464Sol     OW12783   1.854   3.126   8.695 -0.4593 -0.5988  0.4313
 2464Sol     HW12784   1.877   3.076   8.617  1.8072 -1.2621  1.4937
 2464Sol     HW12785   1.879   3.070   8.768 -2.3313  0.1073  1.6757
 2464Sol     MW12786   1.858   3.117   8.695  0.5049  0.6167 -0.1736
 2465Sol     OW12787   0.748   1.839   7.583 -0.4653  0.0873  0.1910
 2465Sol     HW12788   0.713   1.927   7.568  0.3318  0.5810  1.2018
 2465Sol     HW12789   0.687   1.781   7.536 -1.1986  1.1389 -0.1790
 2465Sol     MW12790   0.739   1.841   7.577 -0.8570 -0.1222  0.2567
 2466Sol     OW12791   2.505   3.157   6.064  0.0112 -0.6702 -0.2992
 2466Sol     HW12792   2.511   3.252   6.056 -0.4420 -0.5968  0.1953
 2466Sol     HW12793   2.595   3.127   6.066  0.3033  0.1158  3.7746
 2466Sol     MW12794   2.513   3.163   6.064  0.5239 -0.0162 -0.1609
 2467Sol     OW12795   2.343   1.498   5.805  0.2625 -0.4261  0.4012
 2467Sol     HW12796   2.276   1.457   5.860 -1.9922  1.7580 -0.6275
 2467Sol     HW12797   2.345   1.589   5.833 -2.2848  1.2431 -4.2262
 2467Sol     MW12798   2.337   1.502   5.812  0.6430  0.1342  0.1512
 2468Sol     OW12799   3.146   3.168   8.927 -0.5668  0.0148 -0.0695
 2468Sol     HW12800   3.108   3.206   9.007  0.4512  1.2176 -0.1421
 2468Sol     HW12801   3.212   3.232   8.900  0.8484 -1.6150 -0.4829
 2468Sol     MW12802   3.148   3.177   8.932  0.8143 -0.2428  0.2046
 2469Sol     OW12803   0.539   1.939   4.030  0.2901  0.1638  0.2374
 2469Sol     HW12804   0.610   2.000   4.008 -1.2435  1.2080 -2.0779
 2469Sol     HW12805   0.575   1.852   4.011  0.5296  0.7761 -2.2718
 2469Sol     MW12806   0.548   1.937   4.026 -0.1315  0.1552 -0.7675
 2470Sol     OW12807   2.322   2.665   2.573  0.2678 -0.1883  0.2478
 2470Sol     HW12808   2.289   2.670   2.663 -0.3983  1.6400 -0.0794
 2470Sol     HW12809   2.406   2.712   2.577  0.3798 -0.3685 -0.0273
 2470Sol     MW12810   2.327   2.670   2.582 -0.0007  0.3631 -0.6394
 2471Sol     OW12811   2.599   1.718   4.014 -0.4477  0.6681  0.1699
 2471Sol     HW12812   2.643   1.662   4.079 -1.9802  0.7290  1.2945
 2471Sol     HW12813   2.610   1.672   3.931  3.3763  1.6025  0.0252
 2471Sol     MW12814   2.604   1.709   4.013  0.8732  0.0143 -0.2247
 2472Sol     OW12815   0.406   2.886   7.333  0.2183  0.3062 -0.5448
 2472Sol     HW12816   0.482   2.841   7.295  0.6746  1.3337 -0.8815
 2472Sol     HW12817   0.335   2.823   7.326  0.6420 -0.0573 -1.7729
 2472Sol     MW12818   0.407   2.877   7.329  0.2588 -0.2747  0.0125
 2473Sol     OW12819   3.190   0.825   8.435 -0.0665 -0.4634 -0.2876
 2473Sol     HW12820   3.129   0.796   8.367 -0.5246 -1.5021  0.5518
 2473Sol     HW12821   3.226   0.744   8.471  0.0177  0.0687  0.8485
 2473Sol     MW12822   3.188   0.815   8.432  0.1616  0.1971 -0.0959
 2474Sol     OW12823   1.739   0.264   9.027 -0.1084  0.5636 -0.0921
 2474Sol     HW12824   1.714   0.282   9.118 -2.2305  0.8104 -0.6918
 2474Sol     HW12825   1.767   0.349   8.993  1.9387  0.2198  0.6875
 2474Sol     MW12826   1.739   0.273   9.032  0.3130 -0.4183  0.1386
 2475Sol     OW12827   0.035   0.647   7.717  0.3273 -0.2757 -0.3644
 2475Sol     HW12828  -0.013   0.689   7.788  0.6534 -0.5506  0.0190
 2475Sol     HW12829   0.123   0.684   7.722  0.8101 -1.4957  0.4060
 2475Sol     MW12830   0.039   0.654   7.724  0.2179  0.1189  0.3993
 2476Sol     OW12831   2.177   1.298   7.107 -0.5154  0.2951 -0.6927
 2476Sol     HW12832   2.173   1.282   7.201 -0.5604  3.7334 -0.0463
 2476Sol     HW12833   2.249   1.243   7.077  0.9597  0.7961  1.7676
 2476Sol     MW12834   2.183   1.292   7.113  0.1604  0.0789  0.7867
 2477Sol     OW12835   2.076   2.734   5.632  0.1830 -0.1014  0.0760
 2477Sol     HW12836   2.081   2.766   5.541 -0.4709  0.0891  0.1038
 2477Sol     HW12837   2.084   2.639   5.624  0.5345 -0.0574 -0.1433
 2477Sol     MW12838   2.077   2.729   5.623 -0.5199  0.1076 -0.2069
 2478Sol     OW12839   2.691   0.270   9.686  0.0204  0.4965  0.4117
 2478Sol     HW12840   2.681   0.338   9.621 -1.9816  1.6274  1.8397
 2478Sol     HW12841   2.646   0.304   9.764 -0.3279 -2.0830  1.4003
 2478Sol     MW12842   2.686   0.279   9.687  0.1934  0.0887  0.3960
 2479Sol     OW12843   2.884   2.987   7.363  0.3140  0.2106  0.4955
 2479Sol     HW12844   2.808   3.034   7.328  1.2475  0.5096 -1.2371
 2479Sol     HW12845   2.917   2.937   7.288  0.7238 -1.3847  1.7192
 2479Sol     MW12846   2.880   2.987   7.353 -0.0586  0.5026 -0.3324
 2480Sol     OW12847   0.776   2.389   5.630  0.2858 -0.2621  0.6515
 2480Sol     HW12848   0.726   2.307   5.621 -1.3590  0.6524  1.2695
 2480Sol     HW12849   0.772   2.409   5.724  1.0410  0.3085  0.5613
 2480Sol     MW12850   0.771   2.383   5.638  0.2941 -0.0029 -0.2935
 2481Sol     OW12851   0.490   1.583   9.824 -0.0252  0.3989 -0.0480
 2481Sol     HW12852   0.507   1.554   9.734  0.1635 -1.1762  0.4646
 2481Sol     HW12853   0.402   1.549   9.843 -0.1240  0.8577  0.3152
 2481Sol     MW12854   0.484   1.577   9.818 -0.1261  0.1123  0.2370
 2482Sol     OW12855   2.187   3.287   9.128 -0.1048  0.0949  0.2767
 2482Sol     HW12856   2.100   3.253   9.147 -0.3938  0.4459 -0.3998
 2482Sol     HW12857   2.184   3.310   9.035  1.3387 -1.8277 -0.3020
 2482Sol     MW12858   2.179   3.286   9.121  0.5104  0.2330  0.1989
 2483Sol     OW12859   0.853   0.901   1.565  0.1933 -0.0737  0.1875
 2483Sol     HW12860   0.805   0.906   1.648  1.5502  0.1904  0.9793
 2483Sol     HW12861   0.861   0.807   1.548  1.1780 -0.1597  1.1144
 2483Sol     MW12862   0.849   0.893   1.571 -0.6202  0.4303  0.6165
 2484Sol     OW12863   2.255   3.382   8.879  0.2616 -0.1114 -0.8035
 2484Sol     HW12864   2.334   3.428   8.850 -0.3632  0.9604 -0.8326
 2484Sol     HW12865   2.193   3.393   8.807  0.4672 -1.9911 -1.3120
 2484Sol     MW12866   2.256   3.387   8.870 -0.7907  0.4021 -0.4829
 2485Sol     OW12867   1.672   0.919   1.431 -0.7269 -0.2937  0.4526
 2485Sol     HW12868   1.716   0.914   1.346  1.8195 -0.1265  1.7221
 2485Sol     HW12869   1.641   1.009   1.436 -0.8688 -0.2959 -0.2802
 2485Sol     MW12870   1.673   0.927   1.424  0.0582  0.0902 -0.1287
 2486Sol     OW12871   2.039   1.614   2.092  0.2623 -0.0111 -0.0098
 2486Sol     HW12872   2.133   1.633   2.095  0.1235  0.8121 -0.4973
 2486Sol     HW12873   1.999   1.697   2.065 -0.6972 -0.0839  1.1229
 2486Sol     MW12874   2.044   1.623   2.090 -0.0713 -0.1905  0.1570
 2487Sol     OW12875   2.290   1.050   6.751  0.1409  0.1180 -0.1974
 2487Sol     HW12876   2.312   1.071   6.842 -1.8393  0.3508  0.2430
 2487Sol     HW12877   2.297   1.134   6.705 -1.6050  0.5393  0.3030
 2487Sol     MW12878   2.293   1.060   6.755 -0.1302  0.1327  0.5135
 2488Sol     OW12879   0.719   1.997   6.997 -0.2789 -0.2588 -0.1680
 2488Sol     HW12880   0.711   2.090   6.977  1.3313  0.4524  2.2406
 2488Sol     HW12881   0.662   1.985   7.074 -0.6084 -1.3071 -0.5716
 2488Sol     MW12882   0.713   2.004   7.002 -0.0219 -0.3571 -0.5990
 2489Sol     OW12883   3.280   1.475   9.903  0.3604  0.0053  1.1274
 2489Sol     HW12884   3.269   1.567   9.927 -2.0833 -0.2060  0.9141
 2489Sol     HW12885   3.194   1.436   9.915  0.9014 -1.8297 -0.6123
 2489Sol     MW12886   3.272   1.480   9.906 -0.3487 -0.1787  0.1449
 2490Sol     OW12887   0.544   1.235   9.127  0.3008 -0.1819  0.0845
 2490Sol     HW12888   0.628   1.242   9.172 -0.5579  2.0674  1.4337
 2490Sol     HW12889   0.480   1.224   9.197 -0.6829 -0.3828 -0.8356
 2490Sol     MW12890   0.546   1.235   9.137 -0.1900  0.3294 -0.3531
 2491Sol     OW12891   1.283   0.526   2.256  0.2240  0.5746  0.5699
 2491Sol     HW12892   1.199   0.526   2.210 -0.0694  0.3072  1.1059
 2491Sol     HW12893   1.274   0.593   2.324 -0.2331 -0.7644  1.8534
 2491Sol     MW12894   1.275   0.532   2.258 -0.2398  0.0005 -0.4784
 2492Sol     OW12895   0.748   1.461   9.869 -0.1688  0.6058  0.1110
 2492Sol     HW12896   0.662   1.499   9.853 -0.3411 -0.9140 -2.9462
 2492Sol     HW12897   0.807   1.537   9.875 -1.3603  1.5637 -0.1027
 2492Sol     MW12898   0.745   1.472   9.868  0.3698 -0.1538 -0.6249
 2493Sol     OW12899   0.068   0.043   6.671  0.2996 -0.0800  0.1211
 2493Sol     HW12900   0.126   0.116   6.694 -1.3197  0.9953  0.8369
 2493Sol     HW12901   0.082   0.029   6.578  2.1819 -0.2670  0.3998
 2493Sol     MW12902   0.075   0.048   6.665 -0.5396 -0.2707 -0.1331
 2494Sol     OW12903   1.429   2.245   6.855  0.0107 -0.0785  0.1772
 2494Sol     HW12904   1.402   2.159   6.823  0.9920 -0.2473 -0.2353
 2494Sol     HW12905   1.383   2.307   6.799 -0.4067 -0.3435  0.2280
 2494Sol     MW12906   1.423   2.243   6.847 -0.5156 -0.2771  0.9563
 2495Sol     OW12907   1.473   2.521   5.584  0.4261 -0.1758  0.0595
 2495Sol     HW12908   1.447   2.482   5.500 -0.3962 -0.3467  0.3891
 2495Sol     HW12909   1.398   2.508   5.641 -0.2800  2.7934 -0.1166
 2495Sol     MW12910   1.464   2.516   5.581  0.0652 -0.2239 -0.0500
 2496Sol     OW12911   2.842   1.152   4.172 -0.3765 -0.1184 -0.3396
 2496Sol     HW12912   2.925   1.115   4.202 -0.3729  0.4764  0.4177
 2496Sol     HW12913   2.824   1.109   4.089  1.1884  0.4640 -0.9986
 2496Sol     MW12914   2.848   1.145   4.168  0.3539  0.8577 -0.4926
 2497Sol     OW12915   3.068   3.039   6.377 -0.2716 -0.3438  0.4026
 2497Sol     HW12916   3.025   3.084   6.450 -0.1576 -0.9248  0.8320
 2497Sol     HW12917   3.155   3.016   6.412  0.4948  1.0427 -0.5291
 2497Sol     MW12918   3.072   3.041   6.387 -1.1331 -0.0087 -0.2734
 2498Sol     OW12919   1.308   0.971   6.847  0.2872  0.3205  0.4215
 2498Sol     HW12920   1.343   1.023   6.920  0.7319  0.4571  0.1174
 2498Sol     HW12921   1.242   1.027   6.807  2.1366  1.5016 -1.1291
 2498Sol     MW12922   1.305   0.981   6.850  0.1942  0.2247  0.8615
 2499Sol     OW12923   2.551   1.113   1.876 -0.0704 -0.1012 -0.1851
 2499Sol     HW12924   2.610   1.065   1.818 -0.0848 -0.8436  0.4089
 2499Sol     HW12925   2.513   1.181   1.821  0.7590 -0.1027 -0.7634
 2499Sol     MW12926   2.553   1.115   1.866 -0.0958  0.2585 -0.1566
 2500Sol     OW12927   1.388   3.093   1.841  0.4329 -0.0477 -0.1288
 2500Sol     HW12928   1.452   3.030   1.808  2.2607  2.5819 -1.8378
 2500Sol     HW12929   1.369   3.063   1.930  1.6485 -2.6820 -0.7162
 2500Sol     MW12930   1.392   3.085   1.846 -0.3308  0.0073 -0.2896
 2501Sol     OW12931   2.985   0.669   9.894 -0.0049  0.2399 -0.9928
 2501Sol     HW12932   2.895   0.686   9.867 -0.5550 -1.4943 -0.3320
 2501Sol     HW12933   2.984   0.580   9.928  2.0124  0.1188 -1.1484
 2501Sol     MW12934   2.977   0.663   9.895  0.5798  0.3059 -0.5391
 2502Sol     OW12935   0.352   1.011   9.503  0.4346 -0.3869 -0.1612
 2502Sol     HW12936   0.302   1.084   9.466  0.0505 -0.2253  0.6620
 2502Sol     HW12937   0.352   0.945   9.434  1.3042  0.6212 -1.1440
 2502Sol     MW12938   0.348   1.011   9.493  0.1876  0.4920 -0.4440
 2503Sol     OW12939   2.790   1.556   4.478 -0.0137 -0.3029 -0.1785
 2503Sol     HW12940   2.791   1.644   4.516 -0.5346 -0.6149  0.5636
 2503Sol     HW12941   2.716   1.513   4.519  0.0211 -0.9787 -0.8106
 2503Sol     MW12942   2.784   1.560   4.485 -0.1133  0.3759 -0.3200
 2504Sol     OW12943   0.505   0.988   6.599  0.4090 -0.6639 -0.1154
 2504Sol     HW12944   0.470   0.925   6.536  1.6640  0.1248 -1.6405
 2504Sol     HW12945   0.597   0.999   6.573  0.8389 -0.0282  1.6265
 2504Sol     MW12946   0.510   0.983   6.591  0.2363  0.3200  0.3803
 2505Sol     OW12947   0.590   1.368   7.721 -0.0257  0.2640 -0.0223
 2505Sol     HW12948   0.515   1.366   7.780 -0.7222  1.3911 -0.8574
 2505Sol     HW12949   0.634   1.284   7.736 -0.8635  0.0286  1.2135
 2505Sol     MW12950   0.588   1.360   7.728 -0.2426 -0.5277 -0.0319
 2506Sol     OW12951   2.825   1.221   9.921  0.3850  0.0920 -0.1687
 2506Sol     HW12952   2.805   1.131   9.946  2.5567 -0.5542 -0.7324
 2506Sol     HW12953   2.774   1.235   9.841 -0.6230 -0.3387  0.3895
 2506Sol     MW12954   2.818   1.214   9.916  0.2515 -0.0377  0.1391
 2507Sol     OW12955   2.919   2.884   4.074  0.3604 -0.2602  0.4613
 2507Sol     HW12956   2.960   2.968   4.053 -0.2732  0.2284  1.1642
 2507Sol     HW12957   2.862   2.865   3.999 -0.0366  0.2790  0.6285
 2507Sol     MW12958   2.918   2.890   4.065  0.9414 -0.0624 -0.1272
 2508Sol     OW12959   0.823   1.491   9.160  0.3350  0.4840  0.2833
 2508Sol     HW12960   0.811   1.450   9.074 -0.1949 -0.2422  0.6956
 2508Sol     HW12961   0.804   1.421   9.223  1.9085  0.6585  0.9945
 2508Sol     MW12962   0.820   1.481   9.158 -0.9023 -0.6247 -0.1406
 2509Sol     OW12963   0.991   2.279   3.371  0.7288 -0.3522 -0.3008
 2509Sol     HW12964   1.084   2.291   3.355  0.9526  0.4528  1.4972
 2509Sol     HW12965   0.949   2.356   3.333  0.6910 -1.1695 -1.9421
 2509Sol     MW12966   0.996   2.287   3.366  0.1228 -0.0560  0.4072
 2510Sol     OW12967   1.328   0.335   2.460  0.5787  0.4178  0.3457
 2510Sol     HW12968   1.234   0.318   2.468  0.7334 -0.9726 -0.5882
 2510Sol     HW12969   1.335   0.395   2.386  0.2917  2.0051  1.5820
 2510Sol     MW12970   1.320   0.339   2.454 -0.7043  0.2270  0.4318
 2511Sol     OW12971   1.811   1.054   7.685 -0.1163  0.6393 -0.2100
 2511Sol     HW12972   1.895   1.059   7.638 -0.3687  1.5761 -0.5596
 2511Sol     HW12973   1.748   1.029   7.618  0.1342 -1.6553  0.3612
 2511Sol     MW12974   1.813   1.052   7.675 -0.7668 -0.7682  0.1882
 2512Sol     OW12975   3.269   3.089   5.386 -0.4188  0.5027  0.4699
 2512Sol     HW12976   3.201   3.156   5.382 -2.2387 -1.3384 -0.3366
 2512Sol     HW12977   3.324   3.115   5.460 -1.9903  2.0245  1.1321
 2512Sol     MW12978   3.268   3.098   5.392 -0.6386 -0.4433  0.4205
 2513Sol     OW12979   2.592   0.557   2.893 -0.6064  1.1560  0.5043
 2513Sol     HW12980   2.605   0.564   2.798 -1.2037  0.3340  0.3627
 2513Sol     HW12981   2.665   0.502   2.923  1.1671  3.6415  0.9185
 2513Sol     MW12982   2.600   0.553   2.887  0.1589  0.0153 -0.3484
 2514Sol     OW12983   0.636   1.935   6.014  0.4479 -0.1931  0.0554
 2514Sol     HW12984   0.558   1.903   6.059  0.3708 -0.4113 -0.2314
 2514Sol     HW12985   0.705   1.934   6.080 -0.1479  1.4587  0.7181
 2514Sol     MW12986   0.636   1.932   6.024  0.0508  0.2209 -0.1750
 2515Sol     OW12987   1.022   3.248   6.066  0.4657 -0.2427  0.3832
 2515Sol     HW12988   0.976   3.315   6.016  0.5265 -0.4181  0.0924
 2515Sol     HW12989   1.002   3.268   6.158  1.2544  0.7405  0.3464
 2515Sol     MW12990   1.016   3.256   6.070 -0.1877 -0.3611 -0.2024
 2516Sol     OW12991   1.536   2.920   8.057 -0.0555 -0.6265 -0.2010
 2516Sol     HW12992   1.536   2.835   8.102  0.9807 -0.7020 -0.3255
 2516Sol     HW12993   1.445   2.933   8.029 -0.1125 -1.9774 -0.6972
 2516Sol     MW12994   1.528   2.914   8.058  0.3043 -0.4206  0.1137
 2517Sol     OW12995   1.612   0.633   8.819 -0.0342 -0.1051 -0.0270
 2517Sol     HW12996   1.537   0.577   8.842 -0.8515  0.5152 -1.1043
 2517Sol     HW12997   1.599   0.653   8.726 -0.5815  3.0412  0.6469
 2517Sol     MW12998   1.604   0.630   8.813  0.2717  0.7905  0.0966
 2518Sol     OW12999   2.876   2.898   1.634 -0.7401  0.7083 -0.3035
 2518Sol     HW13000   2.822   2.977   1.628 -1.9666 -0.1170 -0.2768
 2518Sol     HW13001   2.825   2.839   1.689  0.4184  0.0931  0.1139
 2518Sol     MW13002   2.866   2.900   1.639  0.3674 -0.1019  0.1195
 2519Sol     OW13003   2.035   1.205   9.940  0.0129  0.0910  0.2778
 2519Sol     HW13004   1.980   1.140   9.984 -0.3228  2.2459  3.2133
 2519Sol     HW13005   1.979   1.240   9.871 -0.7254 -0.9273  0.3465
 2519Sol     MW13006   2.025   1.203   9.938 -0.4528  0.2538  0.4822
 2520Sol     OW13007   1.040   2.330   5.593 -0.1385  0.2639  0.4073
 2520Sol     HW13008   0.956   2.364   5.623 -0.5104 -1.2118  1.0675
 2520Sol     HW13009   1.018   2.272   5.521  0.2411 -0.7534  1.1108
 2520Sol     MW13010   1.031   2.328   5.589 -0.2877 -0.2506 -0.1307
 2521Sol     OW13011   1.714   3.409   6.322  0.5282 -0.5562 -0.1930
 2521Sol     HW13012   1.716   3.499   6.289  1.6073 -0.5696 -0.2033
 2521Sol     HW13013   1.730   3.355   6.244  0.1287 -0.7404 -0.1454
 2521Sol     MW13014   1.716   3.412   6.312 -0.2843 -0.3316 -0.3599
 2522Sol     OW13015   1.012   1.957   7.367 -0.2876 -0.0447  0.0488
 2522Sol     HW13016   1.063   1.933   7.444 -1.0685  0.0133  0.5920
 2522Sol     HW13017   1.068   1.935   7.293  1.2996  1.8452  0.6674
 2522Sol     MW13018   1.021   1.953   7.367 -0.2338 -0.3861  0.1468
 2523Sol     OW13019   1.442   1.508   9.336  0.1707 -0.5170  0.0631
 2523Sol     HW13020   1.513   1.474   9.281 -0.0019 -1.3380  0.3336
 2523Sol     HW13021   1.377   1.541   9.274 -1.0173 -3.4146 -0.3340
 2523Sol     MW13022   1.443   1.507   9.326  0.2890 -0.0731  0.7286
 2524Sol     OW13023   1.424   1.337   6.668  0.1940  0.1412  0.3563
 2524Sol     HW13024   1.354   1.362   6.608  1.1388  1.5825 -0.1561
 2524Sol     HW13025   1.403   1.382   6.750  0.4252  0.4196  0.2611
 2524Sol     MW13026   1.416   1.343   6.670  0.0643  0.1849 -0.2740
 2525Sol     OW13027   1.214   0.883   5.059  0.3281  0.1698  0.2916
 2525Sol     HW13028   1.255   0.952   5.112 -0.1731  0.2138  0.6197
 2525Sol     HW13029   1.192   0.814   5.122 -0.9160  0.5208  0.2436
 2525Sol     MW13030   1.216   0.883   5.070 -0.6171 -0.7700 -0.2907
 2526Sol     OW13031   0.916   0.229   6.834 -0.2780  0.0481 -0.0768
 2526Sol     HW13032   0.996   0.211   6.883 -0.9897 -1.0353  0.7203
 2526Sol     HW13033   0.943   0.233   6.743  0.9007  1.0866  0.3071
 2526Sol     MW13034   0.925   0.228   6.830  0.1639  0.1704  0.3910
 2527Sol     OW13035   0.766   1.015   6.463  0.3465  0.5264  0.2836
 2527Sol     HW13036   0.813   1.033   6.545  0.0241 -0.5809  0.7265
 2527Sol     HW13037   0.785   1.090   6.408  0.4008  1.3929  1.4533
 2527Sol     MW13038   0.772   1.023   6.466  0.3976 -0.5299 -0.3222
 2528Sol     OW13039   0.309   1.737   4.684  0.4214  0.1431 -0.0713
 2528Sol     HW13040   0.335   1.826   4.705 -1.7447  0.4131  1.6715
 2528Sol     HW13041   0.279   1.700   4.768 -1.5333 -1.2116 -1.3118
 2528Sol     MW13042   0.309   1.741   4.694  0.2007  0.6210  0.3742
 2529Sol     OW13043   2.971   2.399   4.557  0.2770 -0.2749  0.5492
 2529Sol     HW13044   3.061   2.369   4.570  0.2274 -0.7664 -0.2281
 2529Sol     HW13045   2.952   2.450   4.635  0.8645 -1.0574  1.2174
 2529Sol     MW13046   2.978   2.401   4.565  0.4622  0.1244  0.2113
 2530Sol     OW13047   0.926   0.038   9.300  0.7916  0.2571 -0.1296
 2530Sol     HW13048   0.984   0.113   9.291 -0.7909  1.4120 -1.0327
 2530Sol     HW13049   0.883   0.031   9.214  0.1725 -1.0312  0.2770
 2530Sol     MW13050   0.927   0.044   9.291  0.3935 -0.2713 -0.1289
 2531Sol     OW13051   0.099   1.706   5.800 -0.2776 -0.4825 -0.0738
 2531Sol     HW13052   0.056   1.791   5.800  0.5153 -0.0834 -0.0005
 2531Sol     HW13053   0.031   1.645   5.831 -0.7786  0.1442  0.0720
 2531Sol     MW13054   0.089   1.708   5.803  0.0405 -0.4312 -0.1649
 2532Sol     OW13055   2.698   2.993   2.252 -0.5070  0.2928  0.2975
 2532Sol     HW13056   2.603   3.002   2.245 -1.0691 -3.7031  1.7124
 2532Sol     HW13057   2.720   3.026   2.339 -0.4529  1.9197 -0.3144
 2532Sol     MW13058   2.692   2.997   2.259 -0.3492  0.2362  0.6701
 2533Sol     OW13059   0.597   0.994   1.354 -0.3889 -0.4329 -0.1064
 2533Sol     HW13060   0.547   1.076   1.359  1.9311  0.9485  1.7770
 2533Sol     HW13061   0.687   1.020   1.371  0.8608 -3.0123 -2.4329
 2533Sol     MW13062   0.600   1.004   1.356  0.0669  0.1810  0.0585
 2534Sol     OW13063   0.502   0.622   9.335  0.0057  0.1110 -0.0002
 2534Sol     HW13064   0.576   0.562   9.343  1.5179  2.0696  1.0457
 2534Sol     HW13065   0.496   0.664   9.421  0.0960  2.7322 -1.2306
 2534Sol     MW13066   0.508   0.620   9.344 -0.4446  0.3299  0.2992
 2535Sol     OW13067   1.218   3.378   3.147 -0.0985  0.5419 -0.1516
 2535Sol     HW13068   1.166   3.458   3.139  0.7001  1.2273  1.2401
 2535Sol     HW13069   1.210   3.353   3.239 -0.1884 -0.8957 -0.5307
 2535Sol     MW13070   1.213   3.383   3.155 -0.3464  0.0240 -0.0171
 2536Sol     OW13071   0.839   2.327   7.348 -1.2697 -0.2622 -0.4204
 2536Sol     HW13072   0.838   2.284   7.262  1.1725  0.5550 -0.9052
 2536Sol     HW13073   0.918   2.293   7.391 -2.7652 -1.1021  1.7691
 2536Sol     MW13074   0.846   2.320   7.344 -0.1127 -0.0303  0.2780
 2537Sol     OW13075   2.068   1.722   8.746  0.0141  0.3437  0.5173
 2537Sol     HW13076   2.097   1.638   8.782 -1.3838 -0.7489 -0.8643
 2537Sol     HW13077   2.022   1.764   8.819 -0.8998 -0.9065  0.6811
 2537Sol     MW13078   2.067   1.718   8.756  0.6449  0.3866  0.1908
 2538Sol     OW13079   1.986   0.700   7.295  0.6283  0.0433  0.2306
 2538Sol     HW13080   1.981   0.607   7.273 -0.9986 -0.2729  1.7374
 2538Sol     HW13081   1.995   0.701   7.391 -0.3742  1.4243  0.3354
 2538Sol     MW13082   1.986   0.692   7.302  0.8131 -0.5772  0.1188
 2539Sol     OW13083   1.974   2.976   8.460  0.0038 -0.3928  0.3044
 2539Sol     HW13084   1.959   3.049   8.398  2.1016 -1.4094 -1.4585
 2539Sol     HW13085   1.899   2.918   8.446 -0.7732  0.5595  0.4461
 2539Sol     MW13086   1.966   2.978   8.453  0.0582 -0.1410 -0.6443
 2540Sol     OW13087   1.978   0.187   2.327 -0.6431 -0.5612 -0.4933
 2540Sol     HW13088   2.000   0.272   2.365 -0.4913 -0.7384 -0.1896
 2540Sol     HW13089   1.897   0.161   2.370  1.3744 -2.4345  2.3687
 2540Sol     MW13090   1.973   0.192   2.334 -0.8438  0.1295  0.2814
 2541Sol     OW13091   0.796   0.098   3.332  0.1103  0.2655  0.2230
 2541Sol     HW13092   0.857   0.152   3.384  0.6022 -0.8074  0.7714
 2541Sol     HW13093   0.739   0.162   3.289  0.4591  1.2168  1.1439
 2541Sol     MW13094   0.797   0.109   3.333  0.0657 -0.5322  0.3670
 2542Sol     OW13095   1.602   3.432   1.498  0.3269  0.0242  0.1605
 2542Sol     HW13096   1.623   3.447   1.590 -1.9398  0.4001  0.6429
 2542Sol     HW13097   1.631   3.342   1.481 -0.4835 -0.5360  1.6347
 2542Sol     MW13098   1.606   3.425   1.505  0.4042  0.0957 -0.6282
 2543Sol     OW13099   3.268   2.903   8.902  0.1141 -0.2675  0.0560
 2543Sol     HW13100   3.253   2.993   8.929  0.1556 -0.3243  0.2737
 2543Sol     HW13101   3.354   2.904   8.859  0.3154 -0.2877  0.4612
 2543Sol     MW13102   3.275   2.911   8.900  0.2287 -0.6212 -0.2867
 2544Sol     OW13103   1.930   2.683   4.072 -0.2116 -0.2298 -0.5736
 2544Sol     HW13104   1.925   2.639   4.157  3.9302  2.8795  1.4486
 2544Sol     HW13105   1.999   2.636   4.025  1.2442  1.3588 -0.0664
 2544Sol     MW13106   1.935   2.675   4.076 -0.2667 -0.1997 -0.3565
 2545Sol     OW13107   2.564   2.861   3.467  0.0313 -0.4681  0.0922
 2545Sol     HW13108   2.567   2.946   3.423 -0.7823  0.5696  1.9542
 2545Sol     HW13109   2.643   2.858   3.520  0.3180 -1.1058 -0.3652
 2545Sol     MW13110   2.571   2.868   3.468  0.3601  0.1480 -0.1177
 2546Sol     OW13111   0.218   2.193   3.281  0.1959 -0.4425  0.3768
 2546Sol     HW13112   0.125   2.204   3.263  0.5658 -0.5315 -1.7217
 2546Sol     HW13113   0.259   2.274   3.251  1.3129 -2.1666 -2.9632
 2546Sol     MW13114   0.214   2.201   3.277  0.2969  0.0263 -0.2402
 2547Sol     OW13115   0.232   2.164   4.893 -0.0245 -0.0388  0.3404
 2547Sol     HW13116   0.229   2.165   4.989  0.5257  2.3149  0.3502
 2547Sol     HW13117   0.150   2.121   4.867 -1.5333  1.8712  1.8223
 2547Sol     MW13118   0.224   2.160   4.899 -0.4713  0.4339 -0.6817
 2548Sol     OW13119   1.440   1.265   2.329  0.2273  0.0012  0.3753
 2548Sol     HW13120   1.400   1.238   2.246  1.0610 -0.2182  0.0425
 2548Sol     HW13121   1.379   1.329   2.365  0.1514  0.5410 -0.6912
 2548Sol     MW13122   1.431   1.268   2.325 -0.0150 -1.0224 -0.1864
 2549Sol     OW13123   2.720   1.516   4.154  0.4210 -0.1697 -0.1397
 2549Sol     HW13124   2.815   1.508   4.156  0.3877 -0.3540  0.9414
 2549Sol     HW13125   2.696   1.546   4.242 -0.6457 -1.6841  0.1087
 2549Sol     MW13126   2.726   1.518   4.162  0.1581  0.3159  0.2173
 2550Sol     OW13127   0.252   2.440   4.882 -0.4097  0.6393 -0.4297
 2550Sol     HW13128   0.348   2.434   4.892 -0.6371 -1.6135  0.7694
 2550Sol     HW13129   0.224   2.349   4.875 -2.4301  1.3223 -1.4286
 2550Sol     MW13130   0.258   2.431   4.882 -0.0493 -0.1588  0.4246
 2551Sol     OW13131   0.110   3.173   5.579  0.0540  0.0924  0.3309
 2551Sol     HW13132   0.175   3.117   5.620 -0.6630 -0.2395  1.0511
 2551Sol     HW13133   0.063   3.213   5.653 -0.1978  0.7441 -0.1707
 2551Sol     MW13134   0.111   3.172   5.590  0.0866 -0.0324 -0.3175
 2552Sol     OW13135   0.448   2.455   5.214 -0.1976 -0.0435 -0.3564
 2552Sol     HW13136   0.358   2.435   5.241  0.2957 -0.6435  0.8885
 2552Sol     HW13137   0.450   2.550   5.205 -0.6775  0.0631  0.6196
 2552Sol     MW13138   0.440   2.461   5.216 -0.4396 -0.3406  0.3445
 2553Sol     OW13139   0.181   2.996   8.371 -0.1644 -0.0671 -0.1087
 2553Sol     HW13140   0.101   3.048   8.359 -0.9639 -1.5182 -1.2626
 2553Sol     HW13141   0.244   3.035   8.311 -0.3542  0.3618 -0.0331
 2553Sol     MW13142   0.179   3.004   8.365 -0.2499 -0.0707 -0.3367
 2554Sol     OW13143   1.665   3.160   5.247  0.0369 -0.2143  0.0877
 2554Sol     HW13144   1.706   3.245   5.235 -1.1801  0.1028 -1.9459
 2554Sol     HW13145   1.647   3.128   5.159 -0.0299 -2.3410  0.8252
 2554Sol     MW13146   1.667   3.164   5.238 -0.2787 -0.0147  0.4119
 2555Sol     OW13147   0.069   1.625   4.081  0.6323 -0.6489 -0.3348
 2555Sol     HW13148   0.089   1.719   4.081 -1.3741 -0.1406  2.1034
 2555Sol     HW13149   0.133   1.587   4.140  0.7685 -0.6128 -0.4610
 2555Sol     MW13150   0.076   1.630   4.087  0.8117  0.2157  0.2685
 2556Sol     OW13151   1.228   1.006   3.128  0.5247 -0.5242  0.3637
 2556Sol     HW13152   1.277   1.026   3.208 -1.1135  0.6228  1.1007
 2556Sol     HW13153   1.215   1.091   3.086 -2.0745 -0.6104  0.9278
 2556Sol     MW13154   1.231   1.015   3.132 -0.1912 -0.1445 -0.3891
 2557Sol     OW13155   0.182   0.052   2.989 -0.1734 -0.0852  0.1691
 2557Sol     HW13156   0.140   0.136   3.005  0.4708  0.3468 -0.3765
 2557Sol     HW13157   0.155  -0.003   3.063 -1.2845  0.3330  0.0746
 2557Sol     MW13158   0.176   0.055   2.997 -0.0924 -0.0525 -0.2136
 2558Sol     OW13159   2.322   1.440   3.053  0.4162  0.6386 -0.3397
 2558Sol     HW13160   2.375   1.396   2.986  0.8348  0.8142 -0.1262
 2558Sol     HW13161   2.262   1.372   3.084 -0.3231  0.7720 -1.4573
 2558Sol     MW13162   2.321   1.430   3.050  0.5453  0.0714 -0.2778
 2559Sol     OW13163   2.758   2.283   8.155 -0.5927  0.0100 -0.5002
 2559Sol     HW13164   2.831   2.335   8.122 -1.8421  1.2470 -1.3846
 2559Sol     HW13165   2.797   2.221   8.217  1.0866  1.1169 -0.4526
 2559Sol     MW13166   2.768   2.282   8.157  0.2558 -0.4609 -0.3605
 2560Sol     OW13167   2.436   0.138   5.560 -0.1840 -0.0225 -0.1223
 2560Sol     HW13168   2.466   0.085   5.634  1.0313 -0.2474 -0.7673
 2560Sol     HW13169   2.431   0.077   5.487  1.9552  0.8793 -1.0555
 2560Sol     MW13170   2.438   0.128   5.560  0.7754 -0.0290 -0.0599
 2561Sol     OW13171   2.377   1.702   2.389  0.0491  0.2394  0.0059
 2561Sol     HW13172   2.381   1.607   2.397  1.4896  0.1984 -1.0656
 2561Sol     HW13173   2.464   1.731   2.414 -0.0196  1.1947 -0.8537
 2561Sol     MW13174   2.385   1.696   2.392  0.0779  0.1360  0.3020
 2562Sol     OW13175   2.762   0.660   7.318 -0.3407  0.7098 -0.5089
 2562Sol     HW13176   2.856   0.651   7.303 -0.0512  1.4519  0.7777
 2562Sol     HW13177   2.727   0.572   7.309  0.4797  0.4343 -0.9886
 2562Sol     MW13178   2.767   0.652   7.316 -0.1736 -0.2248 -0.8428
 2563Sol     OW13179   1.886   1.586   3.696 -0.2706  0.8157  0.4929
 2563Sol     HW13180   1.897   1.524   3.769  0.0063 -0.8335 -0.9087
 2563Sol     HW13181   1.970   1.630   3.689 -0.8884  2.4019  2.3805
 2563Sol     MW13182   1.894   1.584   3.702  0.2022 -0.3978 -0.0252
 2564Sol     OW13183   1.549   2.708   7.352 -0.3757 -0.4991  0.3199
 2564Sol     HW13184   1.615   2.668   7.408 -0.4929 -0.1330  0.7235
 2564Sol     HW13185   1.558   2.802   7.367 -1.3188 -0.4718  0.7498
 2564Sol     MW13186   1.555   2.713   7.358 -0.0615 -0.5074 -0.0916
 2565Sol     OW13187   0.606   0.383   6.675 -0.6236  0.0260  0.0449
 2565Sol     HW13188   0.655   0.419   6.749 -0.8143 -1.3457  0.8485
 2565Sol     HW13189   0.515   0.403   6.694 -0.6449 -0.0518  0.0246
 2565Sol     MW13190   0.602   0.388   6.683  0.1164 -0.3264 -0.1072
 2566Sol     OW13191   1.776   1.440   6.801 -0.1838 -0.3008  0.8602
 2566Sol     HW13192   1.729   1.378   6.746  1.3088 -0.3013 -0.4520
 2566Sol     HW13193   1.820   1.386   6.867  0.1567 -0.5234  0.4457
 2566Sol     MW13194   1.776   1.430   6.802  0.2057  0.4356 -0.4242
 2567Sol     OW13195   0.282   1.001   9.207  0.3837  0.0202  0.3952
 2567Sol     HW13196   0.263   1.087   9.245  0.7017  0.4910 -0.4810
 2567Sol     HW13197   0.198   0.956   9.204  0.0471  0.6673 -0.0170
 2567Sol     MW13198   0.273   1.005   9.210  0.3026  0.7127  0.5047
 2568Sol     OW13199   2.919   2.797   2.224  0.0942 -0.1036 -0.5215
 2568Sol     HW13200   2.855   2.868   2.231 -0.4727 -0.5396 -1.2492
 2568Sol     HW13201   2.978   2.811   2.298  0.6196  1.7370 -1.2705
 2568Sol     MW13202   2.919   2.805   2.232 -0.3627  0.1370 -0.0907
 2569Sol     OW13203   2.049   0.951   8.055 -0.3660  0.2664 -0.5950
 2569Sol     HW13204   2.140   0.978   8.070 -0.1363 -0.7868 -0.0789
 2569Sol     HW13205   1.997   1.007   8.112 -0.1580  1.8063 -1.8939
 2569Sol     MW13206   2.052   0.958   8.061  0.0833  0.0378  0.0061
 2570Sol     OW13207   2.512   0.603   2.600 -0.3458 -0.5443 -0.5703
 2570Sol     HW13208   2.486   0.549   2.526  0.5761 -0.4690 -0.9610
 2570Sol     HW13209   2.566   0.672   2.561 -1.0523  0.3298 -0.0109
 2570Sol     MW13210   2.515   0.605   2.590 -0.1004 -0.3653 -0.0327
 2571Sol     OW13211   2.462   1.974   8.223  0.1467 -0.0576  0.2554
 2571Sol     HW13212   2.490   2.031   8.152 -0.4938  0.6431  0.5540
 2571Sol     HW13213   2.368   1.963   8.210  0.2835 -1.1664  0.1231
 2571Sol     MW13214   2.456   1.978   8.216 -0.3149 -0.3958  0.1310
 2572Sol     OW13215   1.735   0.669   1.860  0.1876 -0.0202 -0.0889
 2572Sol     HW13216   1.777   0.645   1.777  0.2253 -0.2959  0.0115
 2572Sol     HW13217   1.792   0.633   1.928 -1.7043 -2.9896  0.0343
 2572Sol     MW13218   1.744   0.664   1.858 -0.2426 -0.8204  0.5330
 2573Sol     OW13219   0.737   2.757   4.590  0.0333  0.2901 -0.6945
 2573Sol     HW13220   0.832   2.748   4.582  0.0497  0.8045 -1.1065
 2573Sol     HW13221   0.725   2.833   4.646 -0.1223 -1.0891  1.1760
 2573Sol     MW13222   0.745   2.763   4.594  0.1179  0.5708 -0.1563
 2574Sol     OW13223   0.620   0.666   8.696 -0.3817 -0.9579 -0.0814
 2574Sol     HW13224   0.625   0.733   8.765  1.4733 -0.0251 -1.0578
 2574Sol     HW13225   0.546   0.611   8.721 -0.8558  0.4187  1.6959
 2574Sol     MW13226   0.614   0.667   8.705 -0.2644  0.0129  0.1559
 2575Sol     OW13227   3.096   1.070   6.403 -0.5115 -0.7704 -0.4146
 2575Sol     HW13228   3.115   1.126   6.328 -0.2842 -0.9028 -0.4590
 2575Sol     HW13229   3.096   0.981   6.368  1.2049 -0.9706  0.0202
 2575Sol     MW13230   3.098   1.067   6.393 -0.3119  0.2310  0.6989
 2576Sol     OW13231   0.871   3.177   4.204 -0.2012 -0.0085  0.0782
 2576Sol     HW13232   0.777   3.175   4.184 -0.3418 -0.8015  0.7646
 2576Sol     HW13233   0.878   3.235   4.279 -0.1751 -0.1112  0.1561
 2576Sol     MW13234   0.863   3.182   4.209  0.4018 -0.4178  0.0567
 2577Sol     OW13235   1.182   0.944   8.237  0.6233 -0.3418  0.1042
 2577Sol     HW13236   1.103   0.975   8.192  1.2180 -0.0048 -0.7279
 2577Sol     HW13237   1.196   0.856   8.203 -0.1756 -0.9423  1.2952
 2577Sol     MW13238   1.176   0.939   8.230  0.1979  0.4343 -0.3490
 2578Sol     OW13239   2.991   2.172   9.738  0.2951 -0.3881 -0.2720
 2578Sol     HW13240   3.040   2.093   9.762 -0.7054 -1.2981 -1.1894
 2578Sol     HW13241   2.913   2.169   9.793  0.3454  0.0668 -0.1738
 2578Sol     MW13242   2.988   2.165   9.745  0.4759 -0.3858 -0.4472
 2579Sol     OW13243   2.697   2.811   1.861 -0.1211  0.9543  0.0358
 2579Sol     HW13244   2.688   2.755   1.938  0.1271  0.4256 -0.3167
 2579Sol     HW13245   2.607   2.830   1.835 -0.2457 -1.4771 -1.4179
 2579Sol     MW13246   2.688   2.808   1.865  0.0802  0.0816 -0.3017
 2580Sol     OW13247   0.065   3.372   6.921 -0.5173 -0.6931  0.0662
 2580Sol     HW13248   0.068   3.357   6.826  0.7507  0.3916 -0.0891
 2580Sol     HW13249   0.106   3.458   6.932 -0.2426 -1.0215  1.6500
 2580Sol     MW13250   0.069   3.379   6.913  0.0869  0.7391  0.1805
 2581Sol     OW13251   1.515   1.749   8.445  0.1256  0.1212  0.1709
 2581Sol     HW13252   1.572   1.818   8.414  0.1489 -0.3217 -0.7905
 2581Sol     HW13253   1.514   1.685   8.374  1.5968 -1.7544  1.7782
 2581Sol     MW13254   1.520   1.749   8.436  0.3235 -0.2376 -0.3417
 2582Sol     OW13255   1.971   2.596   2.647 -0.0696  0.1405 -0.5202
 2582Sol     HW13256   1.876   2.610   2.645 -0.2329 -0.3318  2.0358
 2582Sol     HW13257   1.980   2.504   2.673  1.1032 -0.0699 -1.6220
 2582Sol     MW13258   1.963   2.589   2.649 -0.5325  0.2607  0.0745
 2583Sol     OW13259   1.552   0.226   7.551  0.3172  0.3531 -0.0265
 2583Sol     HW13260   1.606   0.149   7.535  1.9222  1.3820  0.2981
 2583Sol     HW13261   1.497   0.202   7.626  2.5108  0.3508  1.6278
 2583Sol     MW13262   1.552   0.217   7.557 -0.2632  0.2059 -0.5319
 2584Sol     OW13263   0.075   1.989   2.479  0.0238  0.1249 -0.1694
 2584Sol     HW13264   0.071   1.967   2.386 -0.1974  0.5941 -0.2700
 2584Sol     HW13265   0.070   2.084   2.482  0.3871  0.1283  0.3064
 2584Sol     MW13266   0.074   1.995   2.471 -0.1616  0.4322 -0.1134
 2585Sol     OW13267   2.731   2.519   4.213 -0.0011 -0.0426  0.3895
 2585Sol     HW13268   2.822   2.530   4.238 -0.0244  1.6467 -0.1992
 2585Sol     HW13269   2.704   2.606   4.183 -1.9906 -0.3596  1.1979
 2585Sol     MW13270   2.737   2.528   4.213 -0.0838 -0.3503 -0.4057
 2586Sol     OW13271   0.641   1.682   4.029  0.4321  0.1411  0.2396
 2586Sol     HW13272   0.722   1.661   3.982 -1.2021 -2.5261 -1.5012
 2586Sol     HW13273   0.658   1.653   4.119  0.7048 -2.4277 -0.5941
 2586Sol     MW13274   0.650   1.677   4.033 -0.1860  0.1855  0.1243
 2587Sol     OW13275   3.308   1.141   5.627 -0.4095 -0.1336  0.2688
 2587Sol     HW13276   3.263   1.225   5.619 -0.4311 -0.1463  0.2514
 2587Sol     HW13277   3.386   1.159   5.678 -0.9941 -0.3233  1.2378
 2587Sol     MW13278   3.311   1.150   5.631 -0.4602 -0.2820 -0.0111
 2588Sol     OW13279   0.595   1.858   6.325  0.0080  0.2997  0.3857
 2588Sol     HW13280   0.529   1.812   6.377 -1.0498  0.5614 -0.7170
 2588Sol     HW13281   0.545   1.919   6.271  1.1393  0.3838 -0.5760
 2588Sol     MW13282   0.584   1.859   6.325 -0.1213  0.0522  0.3437
 2589Sol     OW13283   2.385   0.020   8.457 -0.1459 -0.1684 -0.3037
 2589Sol     HW13284   2.427   0.009   8.542 -0.1852  1.5766 -0.0565
 2589Sol     HW13285   2.458   0.027   8.395 -0.1137 -2.0177 -0.5275
 2589Sol     MW13286   2.396   0.019   8.459 -0.3482  0.0490 -0.3209
 2590Sol     OW13287   0.202   1.415   7.081  0.6417  0.3816  0.3238
 2590Sol     HW13288   0.244   1.350   7.024  0.1314  1.3598 -1.2273
 2590Sol     HW13289   0.262   1.426   7.154  1.1497 -1.1878  0.1572
 2590Sol     MW13290   0.211   1.411   7.082  0.0276  0.6097 -0.3753
 2591Sol     OW13291   2.691   2.889   8.005  0.3123  0.4664  0.1843
 2591Sol     HW13292   2.714   2.872   7.913 -0.5982  1.9232 -0.3226
 2591Sol     HW13293   2.648   2.974   8.004  0.1551  0.4267  1.9556
 2591Sol     MW13294   2.689   2.895   7.996  0.3103 -0.1959  0.0481
 2592Sol     OW13295   1.944   1.300   8.831  0.0453  0.5034 -0.4488
 2592Sol     HW13296   1.996   1.221   8.845  1.9945  1.3218 -2.7057
 2592Sol     HW13297   1.940   1.310   8.736 -0.9469  2.6230 -0.2343
 2592Sol     MW13298   1.948   1.294   8.824 -0.3724 -0.3964 -0.1167
 2593Sol     OW13299   1.796   0.230   3.818 -0.2557  0.8066 -0.3711
 2593Sol     HW13300   1.744   0.150   3.829 -0.3167  0.9473  0.3433
 2593Sol     HW13301   1.834   0.221   3.730  0.8008 -0.6243  0.2156
 2593Sol     MW13302   1.794   0.222   3.811 -0.6856 -0.3324 -0.1419
 2594Sol     OW13303   3.264   2.823   7.095 -0.7538  0.2230  0.2135
 2594Sol     HW13304   3.264   2.735   7.133 -0.3234 -0.4380 -1.2856
 2594Sol     HW13305   3.205   2.816   7.020  0.5227  0.7970 -0.8435
 2594Sol     MW13306   3.258   2.814   7.092 -0.8370  0.1975 -0.2381
 2595Sol     OW13307   2.006   2.494   3.589  0.4098  0.5015  0.0683
 2595Sol     HW13308   1.925   2.484   3.638  0.3935 -0.9517 -0.2475
 2595Sol     HW13309   1.997   2.436   3.514  1.7796  0.2494  0.0770
 2595Sol     MW13310   1.998   2.488   3.587  0.1603  0.0089 -0.2245
 2596Sol     OW13311   1.652   3.080   4.198  0.1674  0.2529 -0.1704
 2596Sol     HW13312   1.711   3.020   4.152 -0.3417 -1.4884  1.3564
 2596Sol     HW13313   1.681   3.076   4.290 -0.2258  1.9428  0.0310
 2596Sol     MW13314   1.660   3.074   4.202  0.3906 -0.5254  0.3678
 2597Sol     OW13315   3.120   0.032   7.312  0.3743 -0.3707 -0.1342
 2597Sol     HW13316   3.146  -0.058   7.331  2.2480  0.2370  0.3295
 2597Sol     HW13317   3.202   0.082   7.318 -0.7666  1.4824  0.3509
 2597Sol     MW13318   3.130   0.029   7.314  0.2128 -0.2697 -0.0703
 2598Sol     OW13319   1.504   1.240   3.011  0.0628 -0.0676 -0.7522
 2598Sol     HW13320   1.501   1.154   2.971 -0.2428 -0.8067  0.8289
 2598Sol     HW13321   1.593   1.249   3.043 -0.4409 -0.6516  0.8774
 2598Sol     MW13322   1.511   1.233   3.010 -0.0686 -0.0978  0.1516
 2599Sol     OW13323   0.056   1.675   4.583  0.2300  0.3253 -0.1070
 2599Sol     HW13324   0.140   1.705   4.618 -0.2132  2.1571 -0.5705
 2599Sol     HW13325   0.012   1.634   4.657  0.1775  2.2946  0.9846
 2599Sol     MW13326   0.060   1.674   4.592  0.1704 -0.4064  0.2957
 2600Sol     OW13327   3.031   2.891   2.472 -0.4491 -0.5881  0.2143
 2600Sol     HW13328   2.938   2.905   2.492 -0.6130  1.7560 -1.9728
 2600Sol     HW13329   3.070   2.978   2.474  1.1451 -1.2133 -1.5205
 2600Sol     MW13330   3.026   2.900   2.474  0.8134 -0.3201  0.3718
 2601Sol     OW13331   0.221   2.698   7.301 -0.1731 -0.0052  0.0902
 2601Sol     HW13332   0.193   2.708   7.210 -1.4520  1.6208  0.6572
 2601Sol     HW13333   0.140   2.683   7.350  0.5495 -1.3048  0.9264
 2601Sol     MW13334   0.211   2.697   7.297  0.6769  0.6146 -0.2130
 2602Sol     OW13335   0.511   1.704   5.485  0.7273 -0.4983  0.5742
 2602Sol     HW13336   0.497   1.610   5.485  1.4479 -0.6007 -0.6862
 2602Sol     HW13337   0.496   1.730   5.577  0.4635 -1.8071  0.9076
 2602Sol     MW13338   0.508   1.698   5.494 -0.3606 -0.1268  0.3644
 2603Sol     OW13339   2.844   2.239   4.930 -0.1428  0.2952 -0.2935
 2603Sol     HW13340   2.926   2.209   4.970  0.4157  0.5752 -1.2337
 2603Sol     HW13341   2.776   2.208   4.990  0.7172  1.1170  1.1363
 2603Sol     MW13342   2.845   2.233   4.939 -0.7666  0.4996 -0.3389
 2604Sol     OW13343   2.456   0.032   8.734 -1.1849  0.1711 -0.6965
 2604Sol     HW13344   2.486  -0.058   8.746 -0.5133  0.0364 -3.1556
 2604Sol     HW13345   2.530   0.086   8.760 -0.8120 -0.0535 -1.2623
 2604Sol     MW13346   2.465   0.029   8.737  0.3568 -0.1119  0.0234
 2605Sol     OW13347   2.702   0.673   1.590  0.3456 -0.2286  0.1147
 2605Sol     HW13348   2.633   0.709   1.535  0.5620  0.5372  0.3303
 2605Sol     HW13349   2.656   0.641   1.668  0.3983  1.7814  0.9942
 2605Sol     MW13350   2.692   0.673   1.592  0.2908 -0.4780 -0.1027
 2606Sol     OW13351   1.572   2.987   7.444  0.3469 -0.4143  0.1455
 2606Sol     HW13352   1.593   3.012   7.534  1.9416 -1.4048  0.0569
 2606Sol     HW13353   1.603   3.060   7.390 -0.0421 -0.1041  0.3413
 2606Sol     MW13354   1.576   2.996   7.447  0.3025 -0.2895  0.0386
 2607Sol     OW13355   1.320   2.106   1.463  0.4538  0.8326  0.5103
 2607Sol     HW13356   1.388   2.138   1.522  0.4794  0.8001  0.4981
 2607Sol     HW13357   1.251   2.074   1.522 -0.4259  2.6955  0.5443
 2607Sol     MW13358   1.320   2.106   1.474 -0.7472 -0.3514  0.3068
 2608Sol     OW13359   1.239   2.812   1.393  0.4196  0.1624 -0.8062
 2608Sol     HW13360   1.311   2.866   1.362 -0.2529  0.8276 -1.2005
 2608Sol     HW13361   1.281   2.730   1.420  1.2845  0.4419 -1.2954
 2608Sol     MW13362   1.249   2.809   1.393 -0.5489 -0.2290 -0.0368
 2609Sol     OW13363   2.430   2.008   3.946  0.2548  0.1665  0.3783
 2609Sol     HW13364   2.381   1.978   3.869 -0.5275  0.7405  0.6495
 2609Sol     HW13365   2.521   1.981   3.928 -0.2264 -1.3427  0.0953
 2609Sol     MW13366   2.434   2.003   3.937 -0.3869 -0.2394 -0.4766
 2610Sol     OW13367   1.111   1.834   7.580 -0.1952 -0.1736 -0.6972
 2610Sol     HW13368   1.179   1.791   7.633 -0.9489 -0.6336 -0.0900
 2610Sol     HW13369   1.076   1.765   7.524  0.0773  0.1411 -1.2541
 2610Sol     MW13370   1.114   1.824   7.580 -0.4447  0.0523  0.0573
 2611Sol     OW13371   1.161   2.353   5.164 -0.1469 -0.0867  0.4106
 2611Sol     HW13372   1.194   2.269   5.196 -1.0319 -0.4607  0.3476
 2611Sol     HW13373   1.153   2.406   5.243 -0.3596 -0.3325  0.5575
 2611Sol     MW13374   1.163   2.350   5.174 -0.1785 -0.3689  0.7014
 2612Sol     OW13375   2.849   2.195   4.658  0.2159  0.1191 -0.0970
 2612Sol     HW13376   2.887   2.270   4.612  0.2799  0.5361  0.6246
 2612Sol     HW13377   2.848   2.221   4.750 -1.2823 -0.1139 -0.0323
 2612Sol     MW13378   2.852   2.204   4.663 -0.7290  0.0026 -0.2742
 2613Sol     OW13379   0.921   2.852   7.684  0.0079  0.6273 -0.1689
 2613Sol     HW13380   0.884   2.906   7.615 -1.2662 -1.0944 -0.8788
 2613Sol     HW13381   1.002   2.816   7.646  1.0793  2.2981  0.4509
 2613Sol     MW13382   0.925   2.853   7.675 -0.0584  0.6141  0.0968
 2614Sol     OW13383   0.956   0.801   8.861 -0.1138 -0.0943 -0.0022
 2614Sol     HW13384   0.936   0.730   8.922  1.3905  2.3533  3.4970
 2614Sol     HW13385   0.880   0.858   8.865  1.0290  1.3437  1.5127
 2614Sol     MW13386   0.947   0.800   8.867  0.5367 -0.3143  0.7809
 2615Sol     OW13387   0.963   3.277   4.925  0.0310  0.0171  0.0094
 2615Sol     HW13388   0.902   3.351   4.924 -0.1029 -0.1015 -0.9693
 2615Sol     HW13389   0.909   3.202   4.900  0.2580 -0.3494  0.6037
 2615Sol     MW13390   0.953   3.277   4.923  0.3005 -0.3545  0.2558
 2616Sol     OW13391   3.263   2.444   6.656 -0.0771 -0.0197 -0.6631
 2616Sol     HW13392   3.232   2.445   6.566 -0.7456 -0.1126 -0.4389
 2616Sol     HW13393   3.275   2.352   6.677  0.1944  0.0080 -0.6974
 2616Sol     MW13394   3.262   2.436   6.650  0.0792 -0.1472  0.1745
 2617Sol     OW13395   2.010   2.536   6.747  0.0493 -0.0363 -0.3248
 2617Sol     HW13396   2.095   2.493   6.751 -0.8155 -1.7322  0.8996
 2617Sol     HW13397   1.970   2.504   6.667 -0.1964 -0.7545  0.0812
 2617Sol     MW13398   2.014   2.529   6.740  0.2741 -0.0603 -0.1919
 2618Sol     OW13399   3.083   2.114   1.887  0.6364  0.1307  0.0989
 2618Sol     HW13400   3.122   2.034   1.922  1.1471  0.9557  1.4593
 2618Sol     HW13401   3.018   2.141   1.952 -0.6631 -0.0264 -1.1027
 2618Sol     MW13402   3.081   2.110   1.896  1.0633 -0.2396 -0.3594
 2619Sol     OW13403   0.462   0.209   3.038 -0.4080 -0.7266  0.0347
 2619Sol     HW13404   0.419   0.157   3.106 -0.4993 -1.2684 -0.4288
 2619Sol     HW13405   0.536   0.154   3.010 -0.0995 -0.3059  0.0159
 2619Sol     MW13406   0.465   0.199   3.042  0.1125 -0.0508  0.3622
 2620Sol     OW13407   0.503   1.910   7.847  0.7751 -0.2617 -0.0568
 2620Sol     HW13408   0.557   1.892   7.770 -1.3206 -0.9677 -1.4199
 2620Sol     HW13409   0.459   1.992   7.828 -1.0360 -1.2720 -0.3933
 2620Sol     MW13410   0.504   1.915   7.839  0.3322  0.5032 -0.5331
 2621Sol     OW13411   3.017   1.609   4.324  0.9590  0.4840  0.4623
 2621Sol     HW13412   3.017   1.704   4.338  0.7936  0.6387 -0.5385
 2621Sol     HW13413   2.940   1.578   4.371  0.1741  1.0422 -0.4340
 2621Sol     MW13414   3.010   1.615   4.330 -0.3019  0.4805  0.1110
 2622Sol     OW13415   2.403   0.585   4.063 -0.0748 -0.3844 -0.0241
 2622Sol     HW13416   2.425   0.494   4.042  0.0789 -0.0429 -1.3987
 2622Sol     HW13417   2.313   0.596   4.031  0.0389  0.0508 -0.1946
 2622Sol     MW13418   2.397   0.578   4.058  0.6331  0.2886  0.2389
 2623Sol     OW13419   1.446   1.684   3.681  0.4496  0.2009  0.0503
 2623Sol     HW13420   1.368   1.658   3.729 -0.5562  0.3422 -1.4828
 2623Sol     HW13421   1.423   1.768   3.641  1.5572  0.4833 -0.0260
 2623Sol     MW13422   1.437   1.689   3.682 -0.4008  0.0993 -0.0634
 2624Sol     OW13423   0.426   0.157   1.286 -0.6265 -0.5368 -0.5128
 2624Sol     HW13424   0.356   0.221   1.278 -0.5418 -0.3265  0.4644
 2624Sol     HW13425   0.443   0.150   1.379  0.0932 -1.2001 -0.6836
 2624Sol     MW13426   0.421   0.162   1.293 -0.3603  0.1880  0.0050
 2625Sol     OW13427   2.749   2.243   3.838  0.5388  0.0683 -0.7185
 2625Sol     HW13428   2.739   2.150   3.857 -0.6557  0.3414  0.0159
 2625Sol     HW13429   2.836   2.265   3.872  0.1594 -0.4102  0.5857
 2625Sol     MW13430   2.756   2.237   3.842  0.4192  0.2041 -0.4302
 2626Sol     OW13431   0.144   3.382   3.245 -0.2124  0.1640  0.6861
 2626Sol     HW13432   0.054   3.366   3.274 -0.6454  1.4807  0.1163
 2626Sol     HW13433   0.182   3.295   3.233 -1.7939 -0.4100 -0.2193
 2626Sol     MW13434   0.139   3.373   3.247  0.3439 -0.1825  0.6436
 2627Sol     OW13435   2.188   2.802   8.444 -0.3934 -0.9167  0.1445
 2627Sol     HW13436   2.120   2.862   8.475  0.2230 -0.0784 -0.1141
 2627Sol     HW13437   2.269   2.852   8.450  0.0110 -1.4415 -0.8541
 2627Sol     MW13438   2.189   2.812   8.447  0.3490  0.5850 -0.3938
 2628Sol     OW13439   1.999   0.613   8.046 -0.4905 -0.8559  0.1332
 2628Sol     HW13440   1.983   0.589   7.955  1.5570 -0.1823 -0.4115
 2628Sol     HW13441   1.948   0.693   8.060  0.1113 -0.3120 -0.7619
 2628Sol     MW13442   1.993   0.618   8.039 -0.0380 -0.7422 -0.1542
 2629Sol     OW13443   0.769   1.668   4.708  0.2908 -0.2255 -0.0432
 2629Sol     HW13444   0.839   1.621   4.662  1.5388  0.3503  1.2316
 2629Sol     HW13445   0.785   1.760   4.687  0.7683  0.0253  1.4026
 2629Sol     MW13446   0.777   1.672   4.702 -0.2494  0.3600 -0.5219
 2630Sol     OW13447   0.124   2.951   7.572  0.3661  0.5455 -0.9162
 2630Sol     HW13448   0.075   2.935   7.492 -1.9763 -2.0400  0.9619
 2630Sol     HW13449   0.102   3.041   7.596 -2.4738 -0.1551 -0.7836
 2630Sol     MW13450   0.118   2.958   7.567  0.4083  0.4385  0.3282
 2631Sol     OW13451   1.304   2.196   2.903 -0.8339 -0.3668 -0.2216
 2631Sol     HW13452   1.348   2.241   2.975  0.6253 -0.9167 -0.7464
 2631Sol     HW13453   1.293   2.264   2.836 -0.7691 -0.2396 -0.1035
 2631Sol     MW13454   1.307   2.206   2.903  0.8582 -0.2827 -0.2166
 2632Sol     OW13455   1.334   2.552   1.499 -0.4523  0.2061 -0.1443
 2632Sol     HW13456   1.408   2.525   1.445 -0.7036 -1.2399  0.2239
 2632Sol     HW13457   1.360   2.531   1.588  0.0756  2.8549  0.3607
 2632Sol     MW13458   1.343   2.548   1.502  0.0654  0.1707 -0.2112
 2633Sol     OW13459   3.115   1.045   4.758  0.1659 -0.4734 -0.0925
 2633Sol     HW13460   3.049   1.033   4.689  1.5250 -0.0944 -1.5096
 2633Sol     HW13461   3.180   0.978   4.740  0.4923 -0.4118  0.8819
 2633Sol     MW13462   3.115   1.038   4.750  0.2837  0.4092  0.2662
 2634Sol     OW13463   2.226   2.693   4.717  0.4306  0.4647  0.7746
 2634Sol     HW13464   2.268   2.777   4.697 -0.2114 -0.1164 -3.5240
 2634Sol     HW13465   2.298   2.630   4.717  0.4331  0.4568 -0.0049
 2634Sol     MW13466   2.237   2.695   4.715  0.1503 -0.7373  0.2470
 2635Sol     OW13467   2.717   1.345   3.350 -0.7030  0.0994  0.5100
 2635Sol     HW13468   2.693   1.434   3.324  0.7245  0.3195 -0.1111
 2635Sol     HW13469   2.656   1.289   3.304 -0.0981  0.6391 -0.9677
 2635Sol     MW13470   2.710   1.348   3.344  0.1683 -0.3045 -0.2976
 2636Sol     OW13471   0.654   0.139   6.540  0.3928 -0.2566  0.1916
 2636Sol     HW13472   0.685   0.154   6.450  1.3250 -1.0851  0.3638
 2636Sol     HW13473   0.681   0.217   6.588 -2.0950  1.2151 -0.7306
 2636Sol     MW13474   0.659   0.147   6.536 -0.2030  0.0600 -0.0250
 2637Sol     OW13475   1.964   0.900   1.775  0.1779  0.1923 -0.0898
 2637Sol     HW13476   1.979   0.972   1.836 -1.4932 -0.6312  1.3383
 2637Sol     HW13477   2.039   0.843   1.785  0.3251  0.5035  0.5666
 2637Sol     MW13478   1.972   0.901   1.781 -0.3789  0.1485 -0.0797
 2638Sol     OW13479   1.564   0.686   6.563  0.0530  0.8462 -0.0985
 2638Sol     HW13480   1.600   0.648   6.482 -2.4736  0.4539 -1.0609
 2638Sol     HW13481   1.572   0.780   6.551  2.1387  0.7734  0.3717
 2638Sol     MW13482   1.568   0.691   6.554  0.2789 -0.1299 -0.0729
 2639Sol     OW13483   0.798   1.284   2.925 -0.0819  0.1514  0.4016
 2639Sol     HW13484   0.797   1.203   2.976 -0.5229 -0.3331 -0.3798
 2639Sol     HW13485   0.878   1.329   2.953  0.8563 -1.1704 -0.1354
 2639Sol     MW13486   0.805   1.281   2.932 -0.0209 -0.1669  0.0758
 2640Sol     OW13487   1.751   1.083   7.069  0.6516  0.0752 -0.5271
 2640Sol     HW13488   1.661   1.113   7.063  0.3104 -0.3627  1.8253
 2640Sol     HW13489   1.804   1.160   7.049 -0.2143  0.2723 -2.1638
 2640Sol     MW13490   1.748   1.093   7.066  0.1841  0.2559  0.4467
 2641Sol     OW13491   2.090   1.811   3.700 -0.2263 -0.4856 -0.1633
 2641Sol     HW13492   2.174   1.857   3.692 -0.6385  0.1092 -1.1376
 2641Sol     HW13493   2.082   1.791   3.793  1.1577 -0.8437 -0.1116
 2641Sol     MW13494   2.097   1.813   3.707  0.3194  0.2527 -0.4476
 2642Sol     OW13495   2.603   2.823   9.741  0.7141 -0.4514 -0.1505
 2642Sol     HW13496   2.665   2.881   9.697 -0.6476  0.1518 -1.3107
 2642Sol     HW13497   2.651   2.789   9.816  1.5107  2.2613  0.6131
 2642Sol     MW13498   2.613   2.825   9.744  0.0541  0.7200 -0.4259
 2643Sol     OW13499   0.428   2.720   7.599 -0.5679 -0.1689  0.8447
 2643Sol     HW13500   0.420   2.769   7.518 -1.4816 -2.5760 -0.5690
 2643Sol     HW13501   0.521   2.725   7.622 -0.4279  1.0634  0.0161
 2643Sol     MW13502   0.436   2.725   7.594  0.1402  0.7818  0.7387
 2644Sol     OW13503   1.592   2.041   5.464 -0.2311 -0.3032 -0.1083
 2644Sol     HW13504   1.512   1.991   5.451  0.3683 -0.9800 -1.2722
 2644Sol     HW13505   1.648   2.018   5.389  1.1034  0.0451  0.7547
 2644Sol     MW13506   1.590   2.035   5.456 -0.1335 -0.1139 -0.1121
 2645Sol     OW13507   0.337   2.125   9.544  0.2340 -0.4427  0.2129
 2645Sol     HW13508   0.352   2.212   9.507 -1.1829 -0.2738 -0.0169
 2645Sol     HW13509   0.385   2.125   9.627  0.5975  0.4090  0.0069
 2645Sol     MW13510   0.343   2.133   9.548  0.0229  0.3219  0.2551
 2646Sol     OW13511   2.023   3.298   1.656  0.1924 -0.3589  0.5801
 2646Sol     HW13512   2.089   3.331   1.717 -0.0280  0.5211  0.3523
 2646Sol     HW13513   1.949   3.274   1.712 -0.1933  0.9065  0.6265
 2646Sol     MW13514   2.022   3.299   1.667  0.2020 -0.1977  0.5719
 2647Sol     OW13515   3.123   2.722   5.677  1.0797 -0.0772 -0.2366
 2647Sol     HW13516   3.156   2.783   5.743  0.1176 -0.2015  0.3716
 2647Sol     HW13517   3.138   2.767   5.593  0.7882  0.8032  0.1796
 2647Sol     MW13518   3.127   2.732   5.675  0.4308  0.1878  0.0744
 2648Sol     OW13519   1.033   0.931   4.852 -0.3593  0.1497 -0.0016
 2648Sol     HW13520   1.041   0.915   4.946 -1.3273  0.4664  0.1392
 2648Sol     HW13521   0.941   0.954   4.839  0.5211  3.6558 -0.5007
 2648Sol     MW13522   1.026   0.932   4.859  0.5174  0.5976  0.1284
 2649Sol     OW13523   3.098   2.443   1.348 -0.1823 -0.5049  0.6889
 2649Sol     HW13524   3.149   2.486   1.416  0.4835  1.3007 -0.8918
 2649Sol     HW13525   3.028   2.506   1.328 -0.0344 -0.7589 -0.6730
 2649Sol     MW13526   3.096   2.453   1.352 -0.0112  0.0826 -0.4615
 2650Sol     OW13527   0.594   1.060   7.744  0.1705  0.1472  0.0001
 2650Sol     HW13528   0.679   1.024   7.718  0.0103  0.1027 -0.4795
 2650Sol     HW13529   0.586   1.039   7.837  0.1653 -0.8830 -0.2242
 2650Sol     MW13530   0.601   1.055   7.750  0.2877  0.1880 -0.7334
 2651Sol     OW13531   1.651   2.986   1.540  0.3003 -0.3299 -0.7606
 2651Sol     HW13532   1.737   2.957   1.511  1.0156 -0.4193  1.3988
 2651Sol     HW13533   1.624   2.920   1.604 -0.8329  0.3796 -0.5030
 2651Sol     MW13534   1.656   2.977   1.543  0.5235 -0.2700 -0.4137
 2652Sol     OW13535   2.850   2.444   2.654  0.4369  0.0887 -0.4776
 2652Sol     HW13536   2.766   2.464   2.612 -0.0948 -0.5176  0.2723
 2652Sol     HW13537   2.895   2.528   2.658 -1.6257  1.1523  2.3376
 2652Sol     MW13538   2.846   2.453   2.651  0.6366 -0.0879 -0.3160
 2653Sol     OW13539   2.038   0.429   7.193 -0.3466  0.0529  0.3855
 2653Sol     HW13540   2.070   0.433   7.103  0.3213 -0.8191  0.5714
 2653Sol     HW13541   1.967   0.365   7.190 -0.3894  0.0979  0.4500
 2653Sol     MW13542   2.035   0.424   7.184  0.1575 -0.4935 -0.1336
 2654Sol     OW13543   1.888   2.577   8.431  0.3293 -0.0841  0.1612
 2654Sol     HW13544   1.856   2.510   8.370 -0.1309 -0.8740  1.2433
 2654Sol     HW13545   1.984   2.568   8.428  0.3212  0.1643 -0.7538
 2654Sol     MW13546   1.894   2.570   8.426 -0.9093  0.3203 -0.1813
 2655Sol     OW13547   1.110   1.682   7.103 -0.2197 -0.1089  0.2437
 2655Sol     HW13548   1.086   1.679   7.196 -0.4622  0.8624  0.2118
 2655Sol     HW13549   1.067   1.760   7.069  2.5092  1.3505  0.0525
 2655Sol     MW13550   1.104   1.688   7.108 -0.2797  0.1731 -0.0884
 2656Sol     OW13551   0.394   2.824   2.039 -0.2698 -0.1350  0.4201
 2656Sol     HW13552   0.473   2.878   2.026  0.2819 -1.2436 -1.0175
 2656Sol     HW13553   0.405   2.786   2.126  0.6649 -0.0813  0.3310
 2656Sol     MW13554   0.402   2.825   2.045  0.0156  0.0002  0.7050
 2657Sol     OW13555   0.140   1.691   3.638  0.4855 -0.0591 -0.1414
 2657Sol     HW13556   0.234   1.680   3.653  0.4766  0.4347  0.2877
 2657Sol     HW13557   0.100   1.625   3.695  0.6747 -2.4310 -2.6830
 2657Sol     MW13558   0.145   1.684   3.645  0.4352 -0.5000 -0.0093
 2658Sol     OW13559   1.261   0.535   8.625 -0.2242 -0.2317  0.3385
 2658Sol     HW13560   1.306   0.469   8.573  0.4161  1.2391 -1.0002
 2658Sol     HW13561   1.289   0.618   8.588  0.2892  0.8647  3.0731
 2658Sol     MW13562   1.268   0.536   8.617  0.1946 -0.4607 -0.0357
 2659Sol     OW13563   0.718   2.942   1.853 -0.2631  0.1477  0.3193
 2659Sol     HW13564   0.774   2.945   1.775 -2.1314 -0.5979 -1.0947
 2659Sol     HW13565   0.695   2.849   1.861 -0.9020  0.3811  1.1631
 2659Sol     MW13566   0.721   2.934   1.846 -0.3605 -0.7779 -0.0294
 2660Sol     OW13567   1.510   0.366   1.768  0.0403 -0.5141  0.4611
 2660Sol     HW13568   1.548   0.440   1.721  0.1992  0.6559  2.3757
 2660Sol     HW13569   1.497   0.398   1.857 -4.4420 -1.2168  0.1751
 2660Sol     MW13570   1.513   0.375   1.772  0.3102 -0.3053 -0.0232
 2661Sol     OW13571   1.357   2.139   5.238 -0.9569 -0.2264  0.1481
 2661Sol     HW13572   1.314   2.093   5.166  3.4926 -1.8656 -1.6252
 2661Sol     HW13573   1.379   2.070   5.301  1.1545  0.1823 -0.1060
 2661Sol     MW13574   1.355   2.128   5.237 -0.0630 -0.6390 -0.1563
 2662Sol     OW13575   2.286   0.777   6.736  0.1286  0.2662  0.0174
 2662Sol     HW13576   2.293   0.872   6.721 -0.3607  0.0460 -1.7336
 2662Sol     HW13577   2.193   0.762   6.752 -0.0647 -0.1422 -1.4384
 2662Sol     MW13578   2.279   0.784   6.736  0.3587  0.0541  0.2376
 2663Sol     OW13579   1.924   1.835   7.466  0.2969 -0.0899 -0.2862
 2663Sol     HW13580   1.835   1.837   7.431  1.6165 -0.4908 -3.8264
 2663Sol     HW13581   1.937   1.922   7.504 -0.9109  0.6159 -1.4547
 2663Sol     MW13582   1.917   1.843   7.467  0.7725  0.2439  0.4898
 2664Sol     OW13583   2.746   2.505   2.941 -0.4742  0.5636  0.4561
 2664Sol     HW13584   2.704   2.423   2.964  0.3436 -0.1091 -0.4130
 2664Sol     HW13585   2.790   2.488   2.858 -0.3560  1.8972  0.2196
 2664Sol     MW13586   2.746   2.496   2.935  0.9339 -1.0548 -0.2011
 2665Sol     OW13587   2.527   1.576   9.270 -0.1778  0.3952 -0.4573
 2665Sol     HW13588   2.488   1.554   9.185 -0.4925 -1.0110  0.0332
 2665Sol     HW13589   2.481   1.520   9.332  2.2948 -0.9416  0.2070
 2665Sol     MW13590   2.519   1.569   9.268  0.0504 -0.0722  0.4201
 2666Sol     OW13591   1.717   3.165   2.933 -0.7309  0.4895 -0.2417
 2666Sol     HW13592   1.744   3.085   2.889 -0.8347  0.0630  0.4709
 2666Sol     HW13593   1.648   3.201   2.878 -0.9818 -0.1352 -0.3312
 2666Sol     MW13594   1.714   3.161   2.924  0.3947  0.5065 -0.6328
 2667Sol     OW13595   2.287   1.011   9.939 -0.5951  0.0386  0.1887
 2667Sol     HW13596   2.314   1.059  10.017 -0.4164  0.6675 -0.2543
 2667Sol     HW13597   2.249   1.078   9.882  0.5685 -0.1645 -0.8608
 2667Sol     MW13598   2.286   1.021   9.941 -0.3743 -0.6872  0.1774
 2668Sol     OW13599   1.983   2.309   7.326  0.1650 -0.1771 -0.5583
 2668Sol     HW13600   1.984   2.374   7.396 -1.5855  0.3833 -1.0125
 2668Sol     HW13601   2.015   2.229   7.366  1.4752  0.7422  0.2505
 2668Sol     MW13602   1.986   2.308   7.335  0.4807  0.3416 -0.0992
 2669Sol     OW13603   0.865   2.799   8.149 -0.3263  0.7781  0.3654
 2669Sol     HW13604   0.872   2.720   8.203 -3.0589 -0.2318 -0.6772
 2669Sol     HW13605   0.932   2.788   8.081 -0.1069 -0.2290  0.7377
 2669Sol     MW13606   0.872   2.791   8.148 -0.6648 -0.3248 -0.2675
 2670Sol     OW13607   0.727   0.262   8.499  0.2569  0.2275 -0.0179
 2670Sol     HW13608   0.792   0.324   8.467 -0.1227 -0.0616 -1.3604
 2670Sol     HW13609   0.661   0.316   8.542  0.9227  0.5877  0.5688
 2670Sol     MW13610   0.727   0.273   8.500  0.3331  0.2333  0.6101
 2671Sol     OW13611   3.242   0.737   1.830  0.3979 -0.0103  0.6136
 2671Sol     HW13612   3.296   0.706   1.757 -1.0259 -1.4145  0.1077
 2671Sol     HW13613   3.178   0.667   1.842 -1.3248  1.6383  1.1549
 2671Sol     MW13614   3.241   0.728   1.824 -0.2512  0.3449 -0.3070
 2672Sol     OW13615   1.019   3.350   2.553  0.0491  0.4674  0.5268
 2672Sol     HW13616   1.056   3.428   2.595  1.9602  0.5655 -1.2616
 2672Sol     HW13617   0.944   3.383   2.502 -0.2948  0.8323  1.2628
 2672Sol     MW13618   1.015   3.360   2.552  0.9625  0.0507  0.1971
 2673Sol     OW13619   0.733   3.432   8.812  0.6035  0.0605 -0.5396
 2673Sol     HW13620   0.747   3.362   8.875  1.6798 -1.2909 -2.2310
 2673Sol     HW13621   0.639   3.450   8.815  0.7456  0.5165  1.9280
 2673Sol     MW13622   0.726   3.428   8.818 -0.3179  0.4592  0.2538
 2674Sol     OW13623   3.136   0.151   9.251  0.3731 -0.6596 -0.1940
 2674Sol     HW13624   3.206   0.090   9.274 -0.2591 -1.5878 -0.6704
 2674Sol     HW13625   3.127   0.208   9.327  1.4963 -0.6774 -0.0482
 2674Sol     MW13626   3.141   0.150   9.260  0.3682 -0.7563  0.5903
 2675Sol     OW13627   1.505   1.042   8.486  0.1421 -0.0985 -0.3772
 2675Sol     HW13628   1.568   0.995   8.433  2.5100  0.5106  1.7847
 2675Sol     HW13629   1.547   1.125   8.506 -0.9753 -0.0060  1.7955
 2675Sol     MW13630   1.514   1.045   8.483  0.0363  0.5731  0.1796
 2676Sol     OW13631   3.018   0.407   9.044 -0.2037  0.4419  0.1691
 2676Sol     HW13632   2.960   0.482   9.028  2.4623  2.5727  0.3007
 2676Sol     HW13633   3.043   0.415   9.136  1.0329  0.0436 -0.1276
 2676Sol     MW13634   3.015   0.414   9.050  0.3877 -0.0329 -0.6504
 2677Sol     OW13635   1.959   1.851   1.992  0.1382  0.4356 -0.2369
 2677Sol     HW13636   1.897   1.882   2.058 -0.5443 -1.7571  0.1910
 2677Sol     HW13637   2.037   1.904   2.005 -1.0870  2.1323  0.2784
 2677Sol     MW13638   1.961   1.858   1.999  0.0804 -0.2152  0.5538
 2678Sol     OW13639   0.913   0.674   1.895  0.2224 -0.3798  0.2658
 2678Sol     HW13640   0.870   0.667   1.810  1.4628 -1.6587 -0.2737
 2678Sol     HW13641   0.948   0.763   1.897 -2.5262  0.7419  0.7785
 2678Sol     MW13642   0.912   0.681   1.888 -0.2952  0.6024  0.1555
 2679Sol     OW13643   2.159   1.279   8.204 -0.2460 -0.6420  0.2242
 2679Sol     HW13644   2.195   1.248   8.120  0.6482 -0.0795  0.3898
 2679Sol     HW13645   2.066   1.257   8.200 -0.3711  0.0954 -1.2584
 2679Sol     MW13646   2.154   1.275   8.196  0.3086  0.3492  0.1918
 2680Sol     OW13647   2.800   0.840   9.465 -0.1605 -0.2564 -0.1604
 2680Sol     HW13648   2.726   0.805   9.516  0.5238 -0.1573  0.9184
 2680Sol     HW13649   2.761   0.910   9.412 -0.4970  1.1279  1.8601
 2680Sol     MW13650   2.790   0.844   9.465 -0.0788 -0.5774 -0.0019
 2681Sol     OW13651   2.215   0.773   9.830 -0.1008  0.7208  0.3135
 2681Sol     HW13652   2.253   0.853   9.868 -1.5490  1.1669  0.8294
 2681Sol     HW13653   2.193   0.798   9.740 -1.6726  1.2735  0.8399
 2681Sol     MW13654   2.217   0.782   9.825 -0.1853  0.2540  0.0541
 2682Sol     OW13655   1.974   1.115   5.087  0.5168  0.4613  0.0242
 2682Sol     HW13656   1.999   1.078   5.172 -1.1858 -0.6768  0.0430
 2682Sol     HW13657   2.009   1.053   5.023  2.2854  1.6034 -0.1619
 2682Sol     MW13658   1.980   1.106   5.089 -0.4882 -0.4026 -0.1405
 2683Sol     OW13659   0.799   1.564   5.356 -0.0824  0.5249 -0.3795
 2683Sol     HW13660   0.827   1.514   5.432  1.6254  1.4891 -0.3642
 2683Sol     HW13661   0.840   1.520   5.281 -0.0853  0.7946 -0.5423
 2683Sol     MW13662   0.805   1.555   5.356 -0.2418 -0.5992 -0.2139
 2684Sol     OW13663   2.242   0.598   4.864  0.6191  0.5188  0.2486
 2684Sol     HW13664   2.257   0.504   4.855  0.8993  0.7013 -1.2974
 2684Sol     HW13665   2.168   0.605   4.924  1.2009 -0.6534  1.1135
 2684Sol     MW13666   2.237   0.590   4.869  0.3383 -0.2790 -0.1895
 2685Sol     OW13667   3.234   1.597   4.795 -0.6132  0.2399 -0.0802
 2685Sol     HW13668   3.191   1.512   4.781  1.7183 -1.1580  1.0000
 2685Sol     HW13669   3.174   1.644   4.854 -0.9738 -1.4689  0.9616
 2685Sol     MW13670   3.224   1.594   4.799  0.1437 -0.1286 -0.0444
 2686Sol     OW13671   1.419   1.562   4.135 -0.2174 -0.2903 -0.2566
 2686Sol     HW13672   1.407   1.642   4.084 -0.2932 -0.3304 -0.3036
 2686Sol     HW13673   1.388   1.585   4.223  0.1616 -0.1445 -0.1639
 2686Sol     MW13674   1.415   1.571   4.139  0.2165 -0.0907 -0.3785
 2687Sol     OW13675   2.483   1.312   1.697  0.0100  0.1184 -0.0248
 2687Sol     HW13676   2.390   1.292   1.685  0.1846 -0.9728  0.3874
 2687Sol     HW13677   2.522   1.296   1.611 -0.2961  1.2531 -0.3806
 2687Sol     MW13678   2.478   1.308   1.688  0.4608  0.1584 -0.2292
 2688Sol     OW13679   0.444   1.786   3.351  0.1063  0.5304 -0.2320
 2688Sol     HW13680   0.468   1.763   3.441  0.3636  0.0490 -0.4220
 2688Sol     HW13681   0.384   1.717   3.324 -2.2002  2.1814  0.5369
 2688Sol     MW13682   0.441   1.778   3.357  0.2233 -0.0595  0.1649
 2689Sol     OW13683   0.758   2.379   8.033 -0.2382 -0.3327 -0.2492
 2689Sol     HW13684   0.819   2.332   8.091 -1.2369 -1.8798 -0.4239
 2689Sol     HW13685   0.803   2.382   7.949  0.8260  1.1067  0.3593
 2689Sol     MW13686   0.768   2.375   8.031  0.7592  0.2179 -0.2755
 2690Sol     OW13687   2.328   3.098   1.987  0.1638 -0.3066  0.0389
 2690Sol     HW13688   2.234   3.120   1.991  0.1418 -0.3702 -0.1574
 2690Sol     HW13689   2.346   3.059   2.072 -0.0943 -0.7285 -0.0995
 2690Sol     MW13690   2.321   3.097   1.995 -0.3346 -0.3653  0.5592
 2691Sol     OW13691   1.754   2.005   2.843  0.2328  0.6355  0.3024
 2691Sol     HW13692   1.664   2.013   2.814  0.5294  1.5138 -0.3692
 2691Sol     HW13693   1.758   2.057   2.924  0.1948  0.7704  0.2169
 2691Sol     MW13694   1.746   2.010   2.848 -1.0414 -0.4218 -0.3995
 2692Sol     OW13695   1.718   2.555   7.513 -0.2336 -0.5690 -0.5312
 2692Sol     HW13696   1.814   2.553   7.510 -0.2585 -0.7078 -1.3229
 2692Sol     HW13697   1.690   2.470   7.479 -0.6414 -0.4537 -0.4915
 2692Sol     MW13698   1.724   2.548   7.509 -0.3774  0.6293  0.1821
 2693Sol     OW13699   2.722   1.230   9.649  0.2916  0.0339 -0.2138
 2693Sol     HW13700   2.627   1.230   9.663  0.6053  2.1762  2.2370
 2693Sol     HW13701   2.739   1.307   9.595  0.9943  1.9499  2.6168
 2693Sol     MW13702   2.715   1.237   9.646  0.1382  0.1111  0.3780
 2694Sol     OW13703   0.403   1.199   2.821 -0.0330 -0.1193  0.3298
 2694Sol     HW13704   0.464   1.272   2.824 -0.9734  0.6248  1.7785
 2694Sol     HW13705   0.318   1.237   2.844 -0.7606 -1.4433 -0.0688
 2694Sol     MW13706   0.401   1.209   2.823  0.3392  0.0011  0.5670
 2695Sol     OW13707   0.746   0.165   2.895 -0.3183  0.1096  0.3761
 2695Sol     HW13708   0.756   0.188   2.803  0.5606  0.4270  0.5414
 2695Sol     HW13709   0.836   0.153   2.927 -0.6420 -0.6286  1.0341
 2695Sol     MW13710   0.755   0.166   2.890  0.2006 -0.2517 -0.0511
 2696Sol     OW13711   2.584   0.179   7.254  0.3362  0.1206 -0.8753
 2696Sol     HW13712   2.553   0.133   7.175  0.8497 -1.3160 -0.2687
 2696Sol     HW13713   2.508   0.179   7.312  0.1053  0.7353 -1.1745
 2696Sol     MW13714   2.575   0.175   7.252  0.2090 -0.8075  0.7315
 2697Sol     OW13715   2.088   0.420   2.430  0.0432 -0.1844  0.2466
 2697Sol     HW13716   2.093   0.456   2.519 -0.4975 -1.0012  0.6150
 2697Sol     HW13717   2.128   0.487   2.375 -1.2286  1.1190  0.8792
 2697Sol     MW13718   2.092   0.429   2.433  0.3628 -0.0643  0.1876
 2698Sol     OW13719   0.308   0.176   6.687  0.3126 -0.3929 -0.1809
 2698Sol     HW13720   0.329   0.133   6.604 -1.1136 -0.6171 -0.4266
 2698Sol     HW13721   0.322   0.269   6.669  0.9693 -0.5193 -0.3694
 2698Sol     MW13722   0.311   0.181   6.678  0.1149  0.0306 -0.3870
 2699Sol     OW13723   3.010   0.614   3.651  0.2727 -0.3648 -0.3473
 2699Sol     HW13724   2.983   0.559   3.578 -1.1569  1.3729 -1.1898
 2699Sol     HW13725   2.962   0.580   3.726 -2.6329  1.2728 -1.3849
 2699Sol     MW13726   3.003   0.606   3.651 -0.2655 -0.1068  0.2780
 2700Sol     OW13727   2.621   3.218   7.019  0.5879 -0.0421 -0.2641
 2700Sol     HW13728   2.563   3.171   6.959 -0.1334  0.1943  0.2385
 2700Sol     HW13729   2.680   3.267   6.962 -0.8763  1.1625 -0.7943
 2700Sol     MW13730   2.621   3.218   7.009  0.0399 -0.3641 -0.1266
 2701Sol     OW13731   0.160   2.974   6.975  0.1124  0.4015 -0.1180
 2701Sol     HW13732   0.076   2.969   7.020  1.0791 -0.1086  1.6719
 2701Sol     HW13733   0.193   2.885   6.974  0.7420  0.6322 -0.6154
 2701Sol     MW13734   0.155   2.966   6.979  0.7990  0.0899  0.0840
 2702Sol     OW13735   2.863   2.013   6.062 -0.3706 -0.6596 -0.7646
 2702Sol     HW13736   2.935   2.047   6.114  0.4134 -1.1872 -1.4819
 2702Sol     HW13737   2.811   2.091   6.038  0.4410 -0.1715 -0.9550
 2702Sol     MW13738   2.865   2.023   6.064  0.5306 -0.4553 -0.1008
 2703Sol     OW13739   1.619   1.735   9.402  0.2408  0.2816 -0.3586
 2703Sol     HW13740   1.687   1.667   9.407 -0.9739 -0.9988 -0.9104
 2703Sol     HW13741   1.540   1.688   9.374 -0.2277  2.1784 -2.4122
 2703Sol     MW13742   1.618   1.725   9.400  0.1275 -0.3217  0.2002
 2704Sol     OW13743   0.645   0.458   2.902 -0.0410 -0.6560 -0.5031
 2704Sol     HW13744   0.693   0.393   2.952 -0.5721  0.0236  0.8981
 2704Sol     HW13745   0.573   0.409   2.862 -0.2503 -1.0004  0.2886
 2704Sol     MW13746   0.643   0.448   2.903  0.7070 -0.3558  0.5633
 2705Sol     OW13747   2.991   1.680   5.055  0.4878 -0.6363  0.4298
 2705Sol     HW13748   2.898   1.695   5.042  0.6233 -1.8655 -2.3933
 2705Sol     HW13749   2.998   1.643   5.143 -1.6225 -0.0981  0.8388
 2705Sol     MW13750   2.984   1.678   5.062 -0.0311  0.5538  0.1297
 2706Sol     OW13751   0.277   1.227   5.383  0.1091  0.0200  0.0710
 2706Sol     HW13752   0.264   1.282   5.461 -0.3185  0.9620 -0.6492
 2706Sol     HW13753   0.309   1.144   5.417 -0.5178  0.2667  1.2899
 2706Sol     MW13754   0.279   1.225   5.393 -0.0262  0.5656 -0.2566
 2707Sol     OW13755   1.706   2.070   5.195  0.0897 -0.2023  0.0684
 2707Sol     HW13756   1.765   2.135   5.235 -0.2260  0.4016 -0.4386
 2707Sol     HW13757   1.758   1.990   5.190  0.0579 -0.3682  1.9398
 2707Sol     MW13758   1.716   2.069   5.198 -0.1721  0.3842 -0.4857
 2708Sol     OW13759   2.488   2.146   4.162  0.0559 -0.3384  0.0618
 2708Sol     HW13760   2.486   2.236   4.129 -2.4804  0.0092  1.0665
 2708Sol     HW13761   2.467   2.092   4.086 -0.9685  0.1130  0.0169
 2708Sol     MW13762   2.486   2.149   4.152  0.2211  0.0162 -0.5460
 2709Sol     OW13763   2.462   0.585   5.545  0.1970 -0.1860 -0.4447
 2709Sol     HW13764   2.411   0.506   5.563  0.8566 -0.3547  0.7920
 2709Sol     HW13765   2.547   0.567   5.585  0.5014  0.9587 -0.5743
 2709Sol     MW13766   2.465   0.576   5.550  0.2213 -0.2110  0.4540
 2710Sol     OW13767   0.420   1.779   8.069 -0.9672 -0.1972 -0.1048
 2710Sol     HW13768   0.450   1.812   7.984  1.6803 -1.3839  0.3532
 2710Sol     HW13769   0.446   1.846   8.132  1.7773 -1.7285  0.4357
 2710Sol     MW13770   0.425   1.788   8.067  0.9007  0.9215 -0.4137
 2711Sol     OW13771   0.577   0.802   5.465  0.5415 -0.0987  0.3487
 2711Sol     HW13772   0.498   0.854   5.482  0.7446 -0.0043  0.9912
 2711Sol     HW13773   0.564   0.721   5.514  0.4298 -0.4719 -0.2899
 2711Sol     MW13774   0.569   0.799   5.471  0.5034  0.0589 -0.1385
 2712Sol     OW13775   3.065   2.734   3.596  0.2358  0.2594  0.2817
 2712Sol     HW13776   3.114   2.656   3.623 -0.5514 -0.1660  0.4959
 2712Sol     HW13777   3.057   2.726   3.501 -1.1307 -0.6915  0.4649
 2712Sol     MW13778   3.069   2.726   3.590 -0.2504  0.3052 -0.3176
 2713Sol     OW13779   0.332   3.028   2.428 -0.2211  0.1173  0.2220
 2713Sol     HW13780   0.287   3.113   2.424  0.3346  0.4660  1.2239
 2713Sol     HW13781   0.415   3.047   2.471  0.2267 -0.8133 -0.2149
 2713Sol     MW13782   0.335   3.038   2.431 -0.4234  0.3711 -0.0721
 2714Sol     OW13783   1.218   1.325   3.805 -0.1737  0.4682 -0.1217
 2714Sol     HW13784   1.163   1.403   3.815 -1.1471 -0.3561  1.2584
 2714Sol     HW13785   1.156   1.255   3.783  0.5717 -0.0879 -0.4530
 2714Sol     MW13786   1.207   1.326   3.804  0.7764  0.1317 -0.1781
 2715Sol     OW13787   2.654   1.973   1.876 -0.2035  0.5236 -0.4799
 2715Sol     HW13788   2.599   1.907   1.918 -0.8526 -0.4436 -2.8274
 2715Sol     HW13789   2.739   1.964   1.920 -0.2469 -1.9655 -0.8287
 2715Sol     MW13790   2.657   1.966   1.884  0.2296  0.2443 -0.2390
 2716Sol     OW13791   2.598   1.190   2.137 -0.7710  1.2461  0.7999
 2716Sol     HW13792   2.591   1.166   2.045  1.8441 -1.2723  1.1814
 2716Sol     HW13793   2.508   1.211   2.163 -1.7023  0.9274 -2.0256
 2716Sol     MW13794   2.589   1.190   2.131  0.4328 -0.0339  0.7335
 2717Sol     OW13795   1.587   1.530   1.438 -0.1638 -0.3617 -0.3401
 2717Sol     HW13796   1.578   1.579   1.357 -1.1674  0.1723  0.0862
 2717Sol     HW13797   1.655   1.465   1.420  1.1286  1.1414 -0.9200
 2717Sol     MW13798   1.592   1.528   1.429  0.4532  0.3959 -0.2184
 2718Sol     OW13799   2.452   2.692   5.615  0.0092 -0.4186  0.0071
 2718Sol     HW13800   2.395   2.626   5.654  0.5757 -1.0523 -0.2377
 2718Sol     HW13801   2.540   2.657   5.624  0.0609 -1.1336 -2.8801
 2718Sol     MW13802   2.455   2.683   5.619 -0.2629 -0.0718 -0.3231
 2719Sol     OW13803   3.161   0.995   5.783 -0.0075 -0.3597  0.0501
 2719Sol     HW13804   3.226   1.051   5.740  0.5250  0.4451  1.8181
 2719Sol     HW13805   3.078   1.016   5.740  0.4062  0.8901 -0.1706
 2719Sol     MW13806   3.159   1.002   5.776  0.3303 -0.1950  0.5527
 2720Sol     OW13807   2.824   2.726   9.465 -0.1590  0.5110 -0.2870
 2720Sol     HW13808   2.855   2.656   9.523 -0.6506  0.1462 -0.4590
 2720Sol     HW13809   2.784   2.680   9.392  1.1394  0.9631 -1.3005
 2720Sol     MW13810   2.823   2.715   9.464  0.8206  0.1027  0.8086
 2721Sol     OW13811   0.556   2.242   8.777 -0.3902  0.4447  0.1829
 2721Sol     HW13812   0.584   2.236   8.869  2.3220 -0.5288 -0.6571
 2721Sol     HW13813   0.615   2.307   8.739  0.3541 -1.1599 -1.4901
 2721Sol     MW13814   0.564   2.247   8.782  0.1053  0.3261  0.5465
 2722Sol     OW13815   1.967   1.324   5.811  0.3500 -0.9489  0.5287
 2722Sol     HW13816   1.981   1.402   5.865 -0.3551 -0.7307  0.3988
 2722Sol     HW13817   1.970   1.357   5.721 -0.0049 -1.0655  0.4750
 2722Sol     MW13818   1.969   1.334   5.807  0.3357 -0.3837  0.9618
 2723Sol     OW13819   2.924   0.252   3.550  0.3764 -0.3052 -0.0411
 2723Sol     HW13820   2.948   0.176   3.602 -1.4213 -1.5524 -0.9606
 2723Sol     HW13821   2.920   0.219   3.460  0.6667  1.1357 -0.6001
 2723Sol     MW13822   2.926   0.242   3.546  0.5653  0.5161  0.1685
 2724Sol     OW13823   2.210   3.423   1.800 -0.3603 -0.6461 -0.1411
 2724Sol     HW13824   2.282   3.398   1.858 -0.7951 -2.0751 -0.2061
 2724Sol     HW13825   2.202   3.518   1.812  1.3728 -0.5028  0.0330
 2724Sol     MW13826   2.216   3.429   1.806  0.1485  0.9443 -0.9123
 2725Sol     OW13827   0.224   2.075   3.676  0.1982 -0.5309  0.1200
 2725Sol     HW13828   0.181   2.022   3.609 -0.0154  0.0631 -0.2142
 2725Sol     HW13829   0.271   2.011   3.730 -0.3225 -1.0939 -0.0820
 2725Sol     MW13830   0.225   2.064   3.675 -0.0780 -0.3605 -0.7810
 2726Sol     OW13831   0.499   2.035   8.244  0.2641  0.6785  0.2354
 2726Sol     HW13832   0.504   2.101   8.174  0.8743 -1.6745 -2.0046
 2726Sol     HW13833   0.591   2.011   8.260 -0.0154 -0.3399  0.3325
 2726Sol     MW13834   0.508   2.039   8.239 -0.4831 -0.2081  0.5714
 2727Sol     OW13835   1.140   2.896   5.913  0.5311  0.3182 -0.4145
 2727Sol     HW13836   1.159   2.896   5.819 -0.0101 -0.3069 -0.5261
 2727Sol     HW13837   1.095   2.813   5.929  0.0195  0.7162  0.2702
 2727Sol     MW13838   1.138   2.889   5.906  0.0401 -0.1393  0.7357
 2728Sol     OW13839   2.023   2.798   3.572  0.1263  0.3301  0.1556
 2728Sol     HW13840   2.046   2.705   3.579 -1.3521 -0.1925 -1.5913
 2728Sol     HW13841   1.933   2.803   3.605 -0.7904  0.6585 -2.3169
 2728Sol     MW13842   2.017   2.790   3.576  0.2595  0.2983 -0.5459
 2729Sol     OW13843   0.199   2.374   5.289 -0.0203  0.2626 -0.3088
 2729Sol     HW13844   0.183   2.292   5.242 -0.6600 -0.2715  0.8107
 2729Sol     HW13845   0.112   2.415   5.296  0.3257  1.1495 -1.0562
 2729Sol     MW13846   0.189   2.371   5.285 -0.5762  0.0126  0.1632
 2730Sol     OW13847   0.917   0.139   8.658 -0.6217  0.2296 -1.2264
 2730Sol     HW13848   0.849   0.168   8.597 -1.8963 -1.6860 -0.7900
 2730Sol     HW13849   0.875   0.068   8.708  0.9512  0.6044  0.6800
 2730Sol     MW13850   0.907   0.135   8.657 -0.3479 -0.0343 -0.4433
 2731Sol     OW13851   0.820   2.438   5.918  0.3188 -0.3821  0.0306
 2731Sol     HW13852   0.867   2.363   5.955 -0.0153 -2.2052 -3.1127
 2731Sol     HW13853   0.737   2.440   5.966  1.2158 -0.6230  1.6555
 2731Sol     MW13854   0.817   2.432   5.926  0.4935  0.6158 -0.3752
 2732Sol     OW13855   1.224   0.706   3.892  0.1318  0.6593  0.1920
 2732Sol     HW13856   1.161   0.691   3.822  0.0471  1.6105  0.0662
 2732Sol     HW13857   1.295   0.643   3.875  0.3810  1.2803 -1.0679
 2732Sol     MW13858   1.225   0.699   3.884 -0.0652  0.5389  0.3584
 2733Sol     OW13859   1.001   1.838   4.362  0.3465 -0.4694 -0.0877
 2733Sol     HW13860   0.973   1.747   4.349 -0.8780 -0.1108 -0.0218
 2733Sol     HW13861   0.949   1.869   4.437 -1.2967  1.1495 -1.8540
 2733Sol     MW13862   0.994   1.833   4.368 -0.6881 -0.4015 -0.0915
 2734Sol     OW13863   0.429   1.166   4.378 -0.6058  0.5361 -0.5225
 2734Sol     HW13864   0.398   1.103   4.444  1.2449  0.4086  0.2531
 2734Sol     HW13865   0.406   1.252   4.414 -2.9050  0.3524 -1.4607
 2734Sol     MW13866   0.424   1.168   4.387 -0.3581 -0.0627  0.1524
 2735Sol     OW13867   1.004   3.271   9.759  0.7493 -0.2963  0.2043
 2735Sol     HW13868   0.993   3.265   9.664 -1.3384 -0.2243  0.4063
 2735Sol     HW13869   0.994   3.365   9.778  1.0604 -0.3237  0.4962
 2735Sol     MW13870   1.002   3.279   9.752  0.2229  0.5356 -0.3413
 2736Sol     OW13871   3.170   3.073   4.880  0.1503 -0.4359  0.1424
 2736Sol     HW13872   3.180   3.152   4.826 -1.7822 -0.1548  0.1254
 2736Sol     HW13873   3.200   3.002   4.824  0.1860  0.0989 -0.5290
 2736Sol     MW13874   3.173   3.074   4.870  0.2879  0.3738  0.1421
 2737Sol     OW13875   2.639   1.450   2.223 -0.0718  0.0463  0.4819
 2737Sol     HW13876   2.729   1.455   2.255 -0.1405 -0.5680  0.7683
 2737Sol     HW13877   2.637   1.374   2.166  0.0880  1.2399 -1.1479
 2737Sol     MW13878   2.647   1.444   2.221 -0.3497 -0.3667  0.2676
 2738Sol     OW13879   3.066   0.370   4.286 -0.1365 -0.5047  0.0360
 2738Sol     HW13880   2.994   0.362   4.223 -0.9692  2.8362  0.4550
 2738Sol     HW13881   3.023   0.390   4.369  1.2065  1.1317  0.3767
 2738Sol     MW13882   3.056   0.371   4.287 -0.4921  0.3772 -0.1168
 2739Sol     OW13883   1.647   0.177   7.140 -0.2182 -0.1274 -0.3735
 2739Sol     HW13884   1.644   0.163   7.046 -0.1530  0.1635 -0.4203
 2739Sol     HW13885   1.652   0.272   7.150 -2.5217 -0.0295 -0.0170
 2739Sol     MW13886   1.647   0.184   7.133  0.4678  0.7000 -1.1680
 2740Sol     OW13887   1.512   1.578   8.236 -0.3246  0.0807 -0.1908
 2740Sol     HW13888   1.429   1.565   8.189 -0.4774  0.0657  0.0811
 2740Sol     HW13889   1.575   1.599   8.167 -1.1590  3.0196 -0.1217
 2740Sol     MW13890   1.510   1.579   8.225 -0.1657 -0.4535  0.3231
 2741Sol     OW13891   0.665   1.823   5.759  0.6657  0.4452  0.6852
 2741Sol     HW13892   0.673   1.731   5.788 -1.1527  0.6995  2.1403
 2741Sol     HW13893   0.664   1.873   5.841 -1.6778  1.4700  0.0516
 2741Sol     MW13894   0.666   1.819   5.769 -0.5352  0.5608 -0.0628
 2742Sol     OW13895   1.723   2.969   4.462  0.5012  0.0180  0.0255
 2742Sol     HW13896   1.811   3.003   4.445 -0.2017  1.8995 -0.0591
 2742Sol     HW13897   1.703   2.997   4.551  0.8153 -2.3093  0.8560
 2742Sol     MW13898   1.729   2.975   4.468 -0.3085  0.0244  0.5166
 2743Sol     OW13899   2.845   1.056   2.154 -0.7851 -0.1436 -0.7335
 2743Sol     HW13900   2.769   1.114   2.162 -0.1294  0.4130  2.1651
 2743Sol     HW13901   2.916   1.113   2.128 -0.3130  0.2891  1.3686
 2743Sol     MW13902   2.844   1.066   2.153  0.2680  0.0075  0.4543
 2744Sol     OW13903   2.056   2.859   2.609 -0.0717  0.2961  0.5202
 2744Sol     HW13904   1.996   2.927   2.639 -0.0354  0.7306 -0.3746
 2744Sol     HW13905   2.003   2.779   2.607 -0.6275  0.6880 -0.3059
 2744Sol     MW13906   2.046   2.858   2.612 -0.5297 -0.2557 -0.1751
 2745Sol     OW13907   1.706   0.109   8.039  0.4522  0.4997  0.3370
 2745Sol     HW13908   1.797   0.080   8.035  1.0569  2.2961  0.7253
 2745Sol     HW13909   1.663   0.062   7.967  1.6757 -0.3423  0.1284
 2745Sol     MW13910   1.710   0.102   8.032  0.7887  0.4361 -0.7730
 2746Sol     OW13911   1.057   1.505   3.051  0.0201  0.4621  0.0516
 2746Sol     HW13912   1.094   1.523   2.965  0.2307  2.8549  0.6277
 2746Sol     HW13913   1.110   1.555   3.112 -2.7970  2.3019  1.1102
 2746Sol     MW13914   1.065   1.511   3.048  0.3338  0.3384 -0.0104
 2747Sol     OW13915   0.073   2.879   6.708  0.5201  0.6006 -0.0500
 2747Sol     HW13916  -0.013   2.908   6.740 -0.1043 -0.0949 -1.0803
 2747Sol     HW13917   0.133   2.903   6.778 -0.5923  0.6092  0.9193
 2747Sol     MW13918   0.070   2.884   6.717  0.2937  0.5988 -0.7229
 2748Sol     OW13919   1.415   2.982   9.961  0.2014 -0.2353 -0.4085
 2748Sol     HW13920   1.373   3.047   9.905  0.7827  0.2155 -0.3303
 2748Sol     HW13921   1.462   3.033  10.027  0.1789 -0.7470  0.0130
 2748Sol     MW13922   1.416   2.992   9.962 -0.8578 -0.4174 -0.1673
 2749Sol     OW13923   0.587   0.871   4.943 -0.0873  0.2346  0.1994
 2749Sol     HW13924   0.510   0.921   4.969 -0.9254  0.2867 -2.1882
 2749Sol     HW13925   0.601   0.809   5.014 -0.4283  2.2950  2.1266
 2749Sol     MW13926   0.582   0.870   4.951  0.1104 -0.3461 -0.2298
 2750Sol     OW13927   2.827   0.464   1.486 -0.1732 -0.1032  0.0570
 2750Sol     HW13928   2.913   0.483   1.449  0.3691 -0.2888  1.1785
 2750Sol     HW13929   2.791   0.549   1.510 -0.2727 -0.0319 -0.3413
 2750Sol     MW13930   2.831   0.473   1.485  0.0303 -0.4400  0.4587
 2751Sol     OW13931   2.855   1.370   4.785 -0.3613  0.0126 -0.1894
 2751Sol     HW13932   2.791   1.428   4.744  1.6140  1.3218 -1.5017
 2751Sol     HW13933   2.831   1.283   4.755 -3.2027  0.1370  1.5871
 2751Sol     MW13934   2.847   1.367   4.779  0.5309 -0.3981 -0.0019
 2752Sol     OW13935   2.283   1.330   9.882 -0.7847  0.0985  0.8056
 2752Sol     HW13936   2.274   1.379   9.800 -1.0425  0.5454  1.0966
 2752Sol     HW13937   2.195   1.302   9.904 -0.8588  0.7565  1.3975
 2752Sol     MW13938   2.275   1.332   9.877 -0.1304  0.1579  0.3624
 2753Sol     OW13939   2.879   0.029   6.644  0.8237  0.0181  0.1333
 2753Sol     HW13940   2.852   0.112   6.605 -0.3738  0.5963  2.1167
 2753Sol     HW13941   2.975   0.034   6.647  0.7456  1.4511  0.4817
 2753Sol     MW13942   2.886   0.037   6.641  0.6235  0.3514 -0.1286
 2754Sol     OW13943   1.323   2.080   2.220  0.0516 -0.0473 -0.0032
 2754Sol     HW13944   1.241   2.049   2.258  0.0816 -0.7001 -0.4546
 2754Sol     HW13945   1.331   2.031   2.138  0.1081  1.1700 -0.7393
 2754Sol     MW13946   1.316   2.072   2.216  0.7023 -0.1531  0.4403
 2755Sol     OW13947   1.509   1.976   1.784  0.3498 -0.4742 -0.0824
 2755Sol     HW13948   1.568   1.937   1.719 -0.9123 -2.5754 -0.0066
 2755Sol     HW13949   1.504   2.068   1.760  2.9473 -0.4303 -0.6330
 2755Sol     MW13950   1.514   1.980   1.776  0.1485 -0.0307 -0.1449
 2756Sol     OW13951   0.225   3.347   7.782  0.0846 -0.0850 -1.0392
 2756Sol     HW13952   0.299   3.400   7.751  0.5661  0.9192  1.7220
 2756Sol     HW13953   0.264   3.287   7.846 -1.2716 -0.5293 -0.6203
 2756Sol     MW13954   0.235   3.346   7.785 -0.6674 -0.2076  0.7128
 2757Sol     OW13955   1.706   1.741   3.481 -0.4610 -0.1970 -0.4844
 2757Sol     HW13956   1.689   1.762   3.573 -2.4994  0.5513 -1.0062
 2757Sol     HW13957   1.800   1.753   3.471 -0.0120 -1.4250  1.7824
 2757Sol     MW13958   1.713   1.744   3.489 -0.1469  0.1069 -0.2094
 2758Sol     OW13959   1.837   2.748   2.375  0.3571 -0.2692  0.0432
 2758Sol     HW13960   1.911   2.796   2.338 -0.3043 -0.1728 -1.1676
 2758Sol     HW13961   1.842   2.662   2.334  1.1504 -1.0456  1.7062
 2758Sol     MW13962   1.844   2.744   2.368 -0.5302  0.4667 -0.1981
 2759Sol     OW13963   0.241   1.387   9.127  0.1656  0.3228  0.3789
 2759Sol     HW13964   0.185   1.462   9.103 -0.6265 -0.7185 -1.1837
 2759Sol     HW13965   0.258   1.343   9.043  1.4768 -0.6632  1.1482
 2759Sol     MW13966   0.237   1.390   9.117  0.0554 -0.0859  0.1534
 2760Sol     OW13967   2.788   2.978   2.533 -0.2242  0.1037  0.1339
 2760Sol     HW13968   2.789   3.022   2.618 -0.7117  2.1650 -0.9091
 2760Sol     HW13969   2.732   2.902   2.546  1.0019 -0.4908  2.0872
 2760Sol     MW13970   2.783   2.975   2.542  0.1521 -0.1840  0.1621
 2761Sol     OW13971   0.156   1.992   4.304  0.0418  0.0192  0.1435
 2761Sol     HW13972   0.107   1.972   4.224  0.1486 -0.2569  0.1477
 2761Sol     HW13973   0.193   1.908   4.331  1.6434  0.4580 -0.6104
 2761Sol     MW13974   0.155   1.983   4.299 -0.1667 -0.8349  0.2262
 2762Sol     OW13975   0.415   0.320   8.057 -0.2287 -0.1063  0.4057
 2762Sol     HW13976   0.352   0.392   8.061 -0.1069 -0.0284  0.9521
 2762Sol     HW13977   0.370   0.247   8.101  0.4269  0.2265  1.6445
 2762Sol     MW13978   0.405   0.319   8.062  0.1918 -0.1045  0.8938
 2763Sol     OW13979   0.636   1.183   7.104 -0.0950  0.2210 -0.1415
 2763Sol     HW13980   0.684   1.115   7.058  1.2955  0.2235  1.2577
 2763Sol     HW13981   0.641   1.158   7.196 -1.8509  0.8107  0.1314
 2763Sol     MW13982   0.641   1.175   7.108 -0.3736 -0.0096 -0.2251
 2764Sol     OW13983   3.044   2.721   8.864  0.0255  0.6091  0.2410
 2764Sol     HW13984   3.092   2.665   8.803 -0.8638  0.1623 -0.0622
 2764Sol     HW13985   3.109   2.783   8.896  0.5703  0.6681 -0.9449
 2764Sol     MW13986   3.054   2.721   8.861  0.1257  0.4229 -0.5274
 2765Sol     OW13987   0.085   0.461   5.781  0.3279  0.9355 -0.4818
 2765Sol     HW13988   0.114   0.481   5.870  0.5807  0.0738 -0.3584
 2765Sol     HW13989  -0.000   0.504   5.773 -0.1232  0.2558  0.5012
 2765Sol     MW13990   0.080   0.466   5.788  0.4085  0.1737  0.2254
 2766Sol     OW13991   2.305   0.077   3.015  0.0161  0.5550 -0.0553
 2766Sol     HW13992   2.345   0.163   3.021  2.0325 -0.4790  2.0981
 2766Sol     HW13993   2.301   0.045   3.105  0.5073 -2.0983 -0.9011
 2766Sol     MW13994   2.308   0.082   3.024  0.1257  0.2966  0.4464
 2767Sol     OW13995   0.982   1.020   5.538  0.1998 -0.2381 -0.2056
 2767Sol     HW13996   0.963   1.090   5.474 -0.5665 -1.0953 -0.9338
 2767Sol     HW13997   1.068   0.988   5.514 -0.5608 -1.3226 -1.5316
 2767Sol     MW13998   0.988   1.024   5.530 -0.0726  0.1841  0.0881
 2768Sol     OW13999   1.217   0.950   5.418  0.5285  0.3537 -0.2765
 2768Sol     HW14000   1.228   0.859   5.391 -0.5432  0.5556 -1.4174
 2768Sol     HW14001   1.242   1.002   5.342  1.0689  1.0263  0.3443
 2768Sol     MW14002   1.220   0.947   5.409 -0.2300 -0.4692  0.0608
 2769Sol     OW14003   1.459   2.802   6.191 -0.2914  0.1676  0.5739
 2769Sol     HW14004   1.460   2.805   6.096 -1.5724  2.5963  0.5828
 2769Sol     HW14005   1.383   2.749   6.213  0.9553 -1.7849  0.2672
 2769Sol     MW14006   1.452   2.798   6.185  0.0469  0.4858  0.5692
 2770Sol     OW14007   1.167   1.246   1.914 -0.1530  0.6049  0.3963
 2770Sol     HW14008   1.230   1.210   1.853  1.1822 -1.0211  2.6412
 2770Sol     HW14009   1.084   1.205   1.890  0.6945 -1.3542  0.7589
 2770Sol     MW14010   1.165   1.239   1.907  0.1710  0.0063 -0.2389
 2771Sol     OW14011   1.256   2.749   2.773 -0.3578  0.3179  0.2257
 2771Sol     HW14012   1.218   2.767   2.687 -1.5240 -0.2444  0.6091
 2771Sol     HW14013   1.329   2.810   2.780 -1.6311  1.9280 -0.2385
 2771Sol     MW14014   1.259   2.756   2.766  0.6307 -0.3787  0.1003
 2772Sol     OW14015   1.537   2.847   5.905 -0.3582  0.4472 -0.0167
 2772Sol     HW14016   1.583   2.914   5.955 -0.4495  2.0684 -2.0433
 2772Sol     HW14017   1.514   2.889   5.823 -0.9978 -1.8840 -1.0955
 2772Sol     MW14018   1.539   2.856   5.902  0.1956 -0.1382 -0.4391
 2773Sol     OW14019   2.153   0.442   6.953  0.1325  0.6650  0.4836
 2773Sol     HW14020   2.227   0.450   7.013  0.1773  2.9179  0.1798
 2773Sol     HW14021   2.135   0.532   6.926 -3.2360  0.2741  1.1899
 2773Sol     MW14022   2.158   0.451   6.956  0.2146 -0.0815 -0.3405
 2774Sol     OW14023   0.497   2.750   5.481 -0.1384  0.0176  0.2327
 2774Sol     HW14024   0.557   2.803   5.534 -0.4380 -0.6313  1.2247
 2774Sol     HW14025   0.544   2.668   5.466 -0.0908  0.1656 -0.4362
 2774Sol     MW14026   0.507   2.748   5.484  1.0391 -0.7823  0.2582
 2775Sol     OW14027   0.876   1.285   1.627  0.3650  0.2080  0.0513
 2775Sol     HW14028   0.902   1.371   1.661  0.9098 -0.0886  0.3983
 2775Sol     HW14029   0.935   1.223   1.671 -1.8666 -0.6266  1.9402
 2775Sol     MW14030   0.884   1.287   1.634 -0.0227  0.3176 -0.5701
 2776Sol     OW14031   0.394   2.227   7.053  0.1340 -0.0892  0.1819
 2776Sol     HW14032   0.423   2.306   7.099  0.4388 -0.2106  0.2019
 2776Sol     HW14033   0.426   2.155   7.108  0.1694 -0.2294 -0.0236
 2776Sol     MW14034   0.400   2.227   7.062 -0.1367 -0.3583  0.4225
 2777Sol     OW14035   0.183   0.385   2.071  0.3717  0.4481 -0.1354
 2777Sol     HW14036   0.135   0.325   2.127  0.1021 -0.5901 -1.4456
 2777Sol     HW14037   0.135   0.468   2.078 -1.2385 -0.3879 -0.8946
 2777Sol     MW14038   0.174   0.387   2.076 -0.0628 -0.1010 -0.6438
 2778Sol     OW14039   3.007   2.830   2.961 -0.3757  0.0564  0.1025
 2778Sol     HW14040   2.952   2.887   2.907 -1.2496 -0.0031  0.9146
 2778Sol     HW14041   2.946   2.790   3.023  0.3661 -1.1133  0.0958
 2778Sol     MW14042   2.996   2.832   2.962 -0.4011  0.3163  0.9029
 2779Sol     OW14043   1.446   1.336   7.497 -0.2142  0.1791  0.0945
 2779Sol     HW14044   1.387   1.410   7.482 -0.2148  0.9839  3.6286
 2779Sol     HW14045   1.524   1.356   7.446 -1.6399  0.7908 -1.8972
 2779Sol     MW14046   1.448   1.344   7.491  0.3065 -0.3102 -0.1009
 2780Sol     OW14047   2.843   0.543   3.861  0.8552  0.1528 -0.1842
 2780Sol     HW14048   2.791   0.610   3.816 -0.2346 -0.1510  0.5851
 2780Sol     HW14049   2.890   0.592   3.929 -0.6334  0.0325  0.9644
 2780Sol     MW14050   2.842   0.554   3.863 -0.0204 -0.2701  0.1935
 2781Sol     OW14051   2.795   2.839   8.848  0.0137 -0.1192  0.2563
 2781Sol     HW14052   2.760   2.814   8.762 -1.5116  1.6135  0.3353
 2781Sol     HW14053   2.878   2.791   8.855  0.6586  0.4695 -2.5936
 2781Sol     MW14054   2.799   2.832   8.841 -0.3331  0.0684  0.1273
 2782Sol     OW14055   2.042   2.409   5.907 -0.2126 -0.6528 -0.4784
 2782Sol     HW14056   1.953   2.445   5.910  0.0363 -0.0711  0.0682
 2782Sol     HW14057   2.035   2.322   5.945 -0.5333 -0.5689 -0.3473
 2782Sol     MW14058   2.034   2.404   5.910  0.2002 -0.5781 -0.0547
 2783Sol     OW14059   0.863   2.629   3.561  0.6016 -0.5074 -0.3752
 2783Sol     HW14060   0.868   2.693   3.490  1.7465  0.8918  0.9448
 2783Sol     HW14061   0.839   2.547   3.517  0.9425  0.4054 -2.3323
 2783Sol     MW14062   0.862   2.627   3.550 -0.1691 -0.2128  0.1261
 2784Sol     OW14063   1.908   0.755   3.079  0.2697  0.3224  0.4030
 2784Sol     HW14064   1.992   0.710   3.072  0.5081  0.6032  1.3348
 2784Sol     HW14065   1.906   0.815   3.006  1.0465  0.5860  0.5937
 2784Sol     MW14066   1.915   0.756   3.072 -0.3307  0.5229 -0.4770
 2785Sol     OW14067   0.779   0.470   9.362  0.4632 -0.7003 -0.0993
 2785Sol     HW14068   0.789   0.386   9.406  0.1555 -0.8034 -0.2312
 2785Sol     HW14069   0.745   0.449   9.276  0.5449 -0.4527 -0.1923
 2785Sol     MW14070   0.777   0.461   9.359 -0.3615 -0.2603 -0.0246
 2786Sol     OW14071   1.746   0.045   7.558 -0.3959  0.6433 -0.1740
 2786Sol     HW14072   1.837   0.070   7.573 -0.8910  2.9437 -0.8581
 2786Sol     HW14073   1.717   0.008   7.641  1.1770 -0.1696  0.0273
 2786Sol     MW14074   1.752   0.044   7.567  0.5952  0.5502 -0.7035
 2787Sol     OW14075   2.546   2.427   7.877 -0.4665 -0.0759 -0.3998
 2787Sol     HW14076   2.629   2.399   7.838 -0.2114 -2.0795  1.4955
 2787Sol     HW14077   2.485   2.357   7.855 -1.1388  0.3913 -0.0313
 2787Sol     MW14078   2.548   2.418   7.871 -0.2291  0.5463 -0.5132
 2788Sol     OW14079   0.336   3.239   4.080  0.5874  0.0599  0.6805
 2788Sol     HW14080   0.423   3.198   4.087 -0.1678 -1.8809 -0.8260
 2788Sol     HW14081   0.275   3.165   4.076 -0.8993  1.3468 -1.1736
 2788Sol     MW14082   0.339   3.228   4.081  0.6667 -0.2606  0.1240
 2789Sol     OW14083   2.799   2.899   5.551 -0.0855  0.0104  0.2028
 2789Sol     HW14084   2.729   2.921   5.612 -0.7249  1.3866 -1.0222
 2789Sol     HW14085   2.875   2.947   5.584  0.4189 -1.8109  1.7720
 2789Sol     MW14086   2.800   2.905   5.560 -0.7411 -0.3330 -0.3608
 2790Sol     OW14087   2.416   0.827   8.594  0.3109 -0.8991 -0.0119
 2790Sol     HW14088   2.448   0.857   8.509  0.3508  1.1907  0.7297
 2790Sol     HW14089   2.438   0.733   8.595  0.8529 -0.8344 -2.0396
 2790Sol     MW14090   2.421   0.821   8.586 -0.0559  0.1583 -0.0438
 2791Sol     OW14091   0.026   2.380   8.898  0.2583  0.3600 -0.2756
 2791Sol     HW14092   0.080   2.344   8.968  0.0839  2.2840  0.8961
 2791Sol     HW14093  -0.050   2.418   8.943 -0.9230 -0.2587 -1.6989
 2791Sol     MW14094   0.024   2.380   8.908 -0.1293 -0.0536  0.3111
 2792Sol     OW14095   1.931   1.284   4.016 -0.2212  0.6669  0.2462
 2792Sol     HW14096   1.914   1.196   3.984 -0.1431  0.5947  0.4093
 2792Sol     HW14097   1.987   1.323   3.949 -0.2010  0.5722  0.2082
 2792Sol     MW14098   1.934   1.280   4.007  0.1509 -0.7148 -0.1376
 2793Sol     OW14099   2.522   2.602   7.034  0.2158  0.3165 -0.2261
 2793Sol     HW14100   2.487   2.675   6.982  0.0232  0.9583  0.7983
 2793Sol     HW14101   2.527   2.636   7.123 -0.2204 -1.0438  0.3333
 2793Sol     MW14102   2.519   2.612   7.037  0.4930  0.2658 -0.5366
 2794Sol     OW14103   2.333   0.973   7.919  0.2117  0.7716  0.0109
 2794Sol     HW14104   2.307   1.064   7.906 -1.3010  0.4559  0.7802
 2794Sol     HW14105   2.270   0.922   7.869  0.7086  0.1117  0.0520
 2794Sol     MW14106   2.325   0.977   7.914  0.1291 -0.0775 -0.4539
 2795Sol     OW14107   2.787   1.527   8.272 -0.5951 -1.0139  0.1010
 2795Sol     HW14108   2.788   1.499   8.363 -1.7586 -0.6753  0.2259
 2795Sol     HW14109   2.879   1.525   8.245 -0.3343 -1.9392  1.0237
 2795Sol     MW14110   2.795   1.524   8.277 -0.5885  0.0952 -0.0837
 2796Sol     OW14111   2.404   1.238   3.762  0.0535  0.7914  0.0465
 2796Sol     HW14112   2.435   1.325   3.788 -4.7484  2.4079  0.9129
 2796Sol     HW14113   2.390   1.192   3.844  0.7533 -0.1602 -0.3555
 2796Sol     MW14114   2.406   1.241   3.772 -0.0184  0.4741 -1.0459
 2797Sol     OW14115   2.066   0.281   7.977 -0.1933  0.0485 -0.4720
 2797Sol     HW14116   2.082   0.261   7.885 -1.2400  0.1090 -0.6785
 2797Sol     HW14117   2.032   0.371   7.976  0.2129  0.2080  0.0168
 2797Sol     MW14118   2.064   0.287   7.968 -0.4402 -0.5207  0.6124
 2798Sol     OW14119   1.881   0.234   4.097  0.1058 -0.2337 -0.0218
 2798Sol     HW14120   1.972   0.255   4.121  0.5941 -2.3572  0.1098
 2798Sol     HW14121   1.873   0.264   4.007  1.5685 -1.7930 -0.6986
 2798Sol     MW14122   1.889   0.239   4.091  0.3213 -0.0385  0.1052
 2799Sol     OW14123   0.784   1.928   4.537  0.2709  0.6430  0.4430
 2799Sol     HW14124   0.783   1.979   4.618  1.6318  2.1828 -0.4684
 2799Sol     HW14125   0.753   1.990   4.471 -2.0825 -0.9845 -0.0171
 2799Sol     MW14126   0.781   1.938   4.538 -0.0609  0.4500  0.1747
 2800Sol     OW14127   2.457   2.123   5.389  0.6890  0.0688 -0.3007
 2800Sol     HW14128   2.534   2.082   5.428  1.6972 -0.0348 -2.3266
 2800Sol     HW14129   2.426   2.059   5.325 -0.3166  0.6524 -0.4063
 2800Sol     MW14130   2.461   2.113   5.387 -0.0682  0.2356  0.2496
 2801Sol     OW14131   2.357   2.937   4.652  0.0699 -0.7610  0.2687
 2801Sol     HW14132   2.330   3.008   4.710  1.9082  1.6765 -1.7153
 2801Sol     HW14133   2.438   2.903   4.692  0.7770  0.2355 -0.2887
 2801Sol     MW14134   2.362   2.940   4.661  0.3223  0.0222 -0.3180
 2802Sol     OW14135   0.876   1.586   1.546  0.2273 -0.5637  0.2273
 2802Sol     HW14136   0.818   1.564   1.473 -0.2181  0.2337  0.3407
 2802Sol     HW14137   0.818   1.595   1.621  0.6371 -0.9347  0.5884
 2802Sol     MW14138   0.866   1.585   1.546 -0.5246  0.1398 -0.5952
 2803Sol     OW14139   0.868   2.598   2.836 -0.6536  0.0457  0.0868
 2803Sol     HW14140   0.918   2.665   2.883 -0.7277 -0.2307  0.5696
 2803Sol     HW14141   0.901   2.601   2.747 -0.0390  0.1276  0.3130
 2803Sol     MW14142   0.876   2.604   2.832 -0.6066 -0.5090 -0.2789
 2804Sol     OW14143   0.237   0.194   3.571  0.4701 -0.1306  0.2645
 2804Sol     HW14144   0.225   0.266   3.634 -1.3192 -1.2094  1.2181
 2804Sol     HW14145   0.329   0.170   3.579  0.9638  1.7273  0.3066
 2804Sol     MW14146   0.244   0.198   3.578 -0.0488  0.0132  0.4728
 2805Sol     OW14147   0.627   2.806   6.929  0.0005  0.2556  0.2619
 2805Sol     HW14148   0.544   2.773   6.893 -0.4354  0.6117  0.9143
 2805Sol     HW14149   0.695   2.766   6.874 -0.6845  1.9979 -1.9292
 2805Sol     MW14150   0.625   2.799   6.921  0.4630  0.2265  0.7060
 2806Sol     OW14151   2.397   0.428   1.895  0.0570  0.2354 -0.2463
 2806Sol     HW14152   2.313   0.449   1.937  1.5051  1.5073  2.1429
 2806Sol     HW14153   2.424   0.346   1.937 -0.4358 -0.7116 -1.7419
 2806Sol     MW14154   2.392   0.422   1.903 -0.2362  0.2770 -0.0660
 2807Sol     OW14155   3.186   1.921   8.682  0.2474 -0.1013 -0.0454
 2807Sol     HW14156   3.238   1.974   8.742 -1.1060  0.9349  0.2553
 2807Sol     HW14157   3.187   1.970   8.600  0.2751 -0.3895 -0.2179
 2807Sol     MW14158   3.190   1.930   8.680 -0.0392 -0.0012 -0.2312
 2808Sol     OW14159   0.502   3.317   4.507  0.2747  0.2033 -0.3129
 2808Sol     HW14160   0.556   3.238   4.505 -2.5509 -1.8822  2.1356
 2808Sol     HW14161   0.430   3.298   4.447 -1.1405  0.3179  1.3150
 2808Sol     MW14162   0.501   3.308   4.502  0.0502 -0.4343  0.2301
 2809Sol     OW14163   1.135   0.952   4.595  0.0474 -0.2467 -0.4066
 2809Sol     HW14164   1.061   0.921   4.542 -0.3348 -0.5089  0.2681
 2809Sol     HW14165   1.104   0.946   4.686  0.1369  1.6923 -0.2363
 2809Sol     MW14166   1.126   0.949   4.599 -0.3108 -0.0744  0.0057
 2810Sol     OW14167   1.534   3.091   6.638  0.0678  0.6573  0.0044
 2810Sol     HW14168   1.574   3.048   6.562 -0.0813 -0.1791  0.4015
 2810Sol     HW14169   1.462   3.034   6.663  0.1301  0.9269  0.7977
 2810Sol     MW14170   1.531   3.082   6.633  0.1455  0.4680  0.6092
 2811Sol     OW14171   2.901   0.052   3.080 -0.0797  0.1646 -0.5074
 2811Sol     HW14172   2.857   0.092   3.156 -0.8582 -0.9143 -0.3811
 2811Sol     HW14173   2.871   0.104   3.006  0.5020  1.0803 -0.1132
 2811Sol     MW14174   2.894   0.060   3.081  0.0374  0.1151  0.1225
 2812Sol     OW14175   3.261   2.457   4.929  0.1224 -0.1822  0.1242
 2812Sol     HW14176   3.354   2.479   4.927 -0.0873  0.7028 -0.3495
 2812Sol     HW14177   3.241   2.429   4.840 -0.3653  0.9823 -0.1482
 2812Sol     MW14178   3.268   2.457   4.921  0.3625  0.0614 -0.2961
 2813Sol     OW14179   1.054   3.034   9.426 -0.2224  0.6230  0.8531
 2813Sol     HW14180   1.103   2.992   9.496  1.7965 -1.3451 -1.6614
 2813Sol     HW14181   0.987   2.969   9.402  0.8760  0.1117 -0.8888
 2813Sol     MW14182   1.052   3.024   9.430 -0.4346 -0.2743  0.3406
 2814Sol     OW14183   1.358   2.670   9.753  0.0849  0.4431 -0.1302
 2814Sol     HW14184   1.409   2.721   9.691 -0.7538  1.4768  0.0182
 2814Sol     HW14185   1.369   2.716   9.837 -1.7768  1.1979 -0.2664
 2814Sol     MW14186   1.363   2.679   9.755  0.5454 -0.1099 -0.1708
 2815Sol     OW14187   3.279   0.569   3.604  0.1755 -0.7069  0.3107
 2815Sol     HW14188   3.308   0.574   3.695 -0.6798  0.2765  0.5380
 2815Sol     HW14189   3.191   0.606   3.605 -0.3152 -1.8063 -0.7159
 2815Sol     MW14190   3.273   0.573   3.612 -0.3646 -0.1795  0.1289
 2816Sol     OW14191   2.766   0.136   8.290 -0.1308  1.0278 -0.4374
 2816Sol     HW14192   2.721   0.202   8.342 -0.4251  0.6102 -0.1561
 2816Sol     HW14193   2.701   0.108   8.226  0.1230  1.2981 -0.8123
 2816Sol     MW14194   2.756   0.139   8.289 -0.7942  0.0634  0.4716
 2817Sol     OW14195   1.954   2.064   3.631  0.2871 -0.3228 -0.3809
 2817Sol     HW14196   1.967   1.972   3.653  0.0014 -0.3980 -0.5140
 2817Sol     HW14197   2.039   2.105   3.645  0.3744 -0.5764 -0.1697
 2817Sol     MW14198   1.962   2.060   3.634 -0.4780 -0.6182  0.6951
 2818Sol     OW14199   1.043   2.115   2.999  0.1153 -0.5775 -0.4773
 2818Sol     HW14200   0.998   2.195   2.974 -0.6401  0.0739  2.7303
 2818Sol     HW14201   1.136   2.133   2.982 -0.2967 -0.0871 -2.3778
 2818Sol     MW14202   1.048   2.124   2.995  0.1252 -0.0872 -0.6904
 2819Sol     OW14203   1.134   0.521   5.544  0.1746  0.3981 -0.2863
 2819Sol     HW14204   1.157   0.570   5.623  1.8454 -0.0222 -0.4930
 2819Sol     HW14205   1.192   0.445   5.545 -0.4998 -0.1438 -1.3958
 2819Sol     MW14206   1.141   0.518   5.551  0.3123  0.5860  0.4092
 2820Sol     OW14207   1.442   2.465   9.580  0.6756 -0.2440 -0.2905
 2820Sol     HW14208   1.408   2.526   9.646  1.0091  1.7695 -1.9309
 2820Sol     HW14209   1.494   2.402   9.630 -1.0616 -0.1854  1.6281
 2820Sol     MW14210   1.444   2.465   9.591 -0.3545 -0.2884 -0.2014
 2821Sol     OW14211   0.991   1.555   6.694  0.6273  0.1810 -0.6036
 2821Sol     HW14212   0.997   1.649   6.676  1.7311  0.4359  1.0018
 2821Sol     HW14213   0.904   1.543   6.731  0.2773  0.4823 -1.3221
 2821Sol     MW14214   0.984   1.563   6.696 -0.4550 -0.5772 -0.2073
 2822Sol     OW14215   1.652   2.147   4.931  0.1406 -0.0624  0.3638
 2822Sol     HW14216   1.650   2.066   4.879 -1.2886 -0.4037  0.9415
 2822Sol     HW14217   1.647   2.117   5.022 -0.0248  0.6685  0.5925
 2822Sol     MW14218   1.652   2.137   4.934  0.0061 -0.5058  0.4077
 2823Sol     OW14219   1.093   0.149   6.347  0.1095 -0.3377  0.1946
 2823Sol     HW14220   1.149   0.080   6.312  1.5014  0.3816  0.9772
 2823Sol     HW14221   1.138   0.230   6.325  0.6499  0.1748  2.9174
 2823Sol     MW14222   1.102   0.150   6.342  0.0111 -0.2592  0.4908
 2824Sol     OW14223   1.913   2.886   1.530  0.2773  0.3364 -0.6332
 2824Sol     HW14224   1.934   2.978   1.517  2.0055 -0.2848 -2.5783
 2824Sol     HW14225   1.960   2.841   1.460  0.8948 -2.1882  1.3174
 2824Sol     MW14226   1.919   2.890   1.523 -0.0318  0.1863 -0.2340
 2825Sol     OW14227   2.631   3.273   2.511 -0.2316  0.1316 -0.0808
 2825Sol     HW14228   2.564   3.321   2.461 -1.2756 -1.0143  0.1920
 2825Sol     HW14229   2.709   3.278   2.457 -1.4172 -1.3418 -2.0199
 2825Sol     MW14230   2.632   3.278   2.501  0.1348 -0.6000  0.0557
 2826Sol     OW14231   3.051   2.242   7.940 -0.7057  0.0767 -0.5343
 2826Sol     HW14232   3.071   2.298   8.015  0.1730 -0.7890 -0.1097
 2826Sol     HW14233   2.968   2.276   7.906 -1.4850  0.0528  1.2650
 2826Sol     MW14234   3.045   2.250   7.944  0.2752 -0.5051 -0.6776
 2827Sol     OW14235   1.074   1.712   8.734  0.3298  0.1570 -0.2592
 2827Sol     HW14236   1.153   1.704   8.680  0.0706 -1.6864 -0.3995
 2827Sol     HW14237   1.020   1.637   8.710 -0.2330 -0.1670  1.8735
 2827Sol     MW14238   1.076   1.705   8.727 -0.4334  0.0117 -0.3858
 2828Sol     OW14239   2.291   2.552   4.332  0.2151 -0.1499 -0.5908
 2828Sol     HW14240   2.316   2.556   4.239  0.0989  0.5075 -0.5991
 2828Sol     HW14241   2.374   2.559   4.379  0.1816  0.6668 -0.6367
 2828Sol     MW14242   2.301   2.553   4.328 -0.3144 -0.5842  0.0128
 2829Sol     OW14243   1.175   0.484   4.094  0.0262  0.3053  0.0300
 2829Sol     HW14244   1.217   0.539   4.028 -0.2664 -1.0409 -1.2934
 2829Sol     HW14245   1.093   0.530   4.115  0.3768  1.0108 -0.1294
 2829Sol     MW14246   1.171   0.493   4.090 -0.0670 -0.7215  0.7741
 2830Sol     OW14247   3.146   0.468   1.799  0.3105 -0.3348 -0.2539
 2830Sol     HW14248   3.180   0.426   1.720  0.6793 -0.5898  0.0372
 2830Sol     HW14249   3.053   0.446   1.800 -0.0454  1.0763 -1.5062
 2830Sol     MW14250   3.141   0.462   1.792  0.0112  0.3223  0.0647
 2831Sol     OW14251   2.326   2.259   3.348 -0.4446 -0.3439 -0.2914
 2831Sol     HW14252   2.234   2.285   3.358 -0.8062 -1.2804 -1.0431
 2831Sol     HW14253   2.348   2.285   3.259  0.2108  0.4370  0.0998
 2831Sol     MW14254   2.320   2.263   3.341  0.6789 -0.0590 -0.5033
 2832Sol     OW14255   1.216   2.026   6.534  0.3818 -0.4814 -0.7496
 2832Sol     HW14256   1.187   1.947   6.489 -0.1456 -1.4079  1.1616
 2832Sol     HW14257   1.135   2.070   6.561  0.6861 -0.7956  0.7282
 2832Sol     MW14258   1.206   2.023   6.532  0.0340 -0.1376 -0.4527
 2833Sol     OW14259   0.136   2.273   8.186  0.0709 -0.1823 -0.6778
 2833Sol     HW14260   0.111   2.365   8.194 -1.0059 -0.4491 -0.9399
 2833Sol     HW14261   0.224   2.270   8.223 -0.2798  0.7658  0.2976
 2833Sol     MW14262   0.142   2.281   8.190  0.2763 -0.4645 -0.0420
 2834Sol     OW14263   2.506   0.509   4.956 -0.2402  0.2442 -0.6588
 2834Sol     HW14264   2.420   0.541   4.927 -0.3472  0.2628 -0.3285
 2834Sol     HW14265   2.568   0.572   4.920 -0.5106  1.2766  0.6569
 2834Sol     MW14266   2.504   0.517   4.950  0.3466 -0.2134  0.2509
 2835Sol     OW14267   2.166   3.366   5.534 -0.0407  0.3221 -0.6681
 2835Sol     HW14268   2.245   3.388   5.485  1.1845  0.2879  1.2559
 2835Sol     HW14269   2.197   3.345   5.622 -2.0631 -0.9123 -0.2135
 2835Sol     MW14270   2.176   3.366   5.537 -0.6205 -0.1154 -0.1763
 2836Sol     OW14271   3.272   0.381   4.624  0.0033 -0.1138 -0.5546
 2836Sol     HW14272   3.238   0.467   4.599  0.8767  0.6015  0.6364
 2836Sol     HW14273   3.216   0.318   4.579 -0.3759  1.0904 -1.7829
 2836Sol     MW14274   3.264   0.383   4.618 -0.0331  0.2852  0.4234
 2837Sol     OW14275   0.662   0.217   7.219  0.3695  0.1685 -0.3691
 2837Sol     HW14276   0.570   0.191   7.222  0.4102 -0.1206 -1.3068
 2837Sol     HW14277   0.690   0.220   7.310  0.4073 -3.2505 -0.2148
 2837Sol     MW14278   0.656   0.215   7.227  0.0408  0.1339  0.3636
 2838Sol     OW14279   0.141   1.607   1.498 -0.4805 -0.7423  0.0738
 2838Sol     HW14280   0.073   1.672   1.512 -0.1779  0.2015 -2.7060
 2838Sol     HW14281   0.094   1.528   1.471 -0.7240 -1.2731  1.9496
 2838Sol     MW14282   0.131   1.605   1.497 -0.4509  0.3849  0.2786
 2839Sol     OW14283   0.628   2.256   1.565  0.4205 -0.3136  0.1131
 2839Sol     HW14284   0.675   2.336   1.540  0.8531 -0.9232 -1.0321
 2839Sol     HW14285   0.544   2.263   1.520 -0.7683  0.9437  2.4341
 2839Sol     MW14286   0.625   2.264   1.559 -0.1279 -0.1288  0.3155
 2840Sol     OW14287   2.211   2.521   8.000 -0.0215  0.7622  0.2899
 2840Sol     HW14288   2.201   2.601   8.052  0.0930 -0.1809  1.7616
 2840Sol     HW14289   2.202   2.450   8.063 -0.6813 -0.4091 -1.1090
 2840Sol     MW14290   2.209   2.522   8.010  0.5715 -0.4480  0.3254
 2841Sol     OW14291   3.278   1.380   2.727  0.0078  0.1979  0.3078
 2841Sol     HW14292   3.235   1.464   2.741  0.2948  0.4710 -0.4451
 2841Sol     HW14293   3.215   1.315   2.760 -1.0440  0.5848 -0.9267
 2841Sol     MW14294   3.268   1.382   2.732 -0.0284  0.4337  0.3871
 2842Sol     OW14295   2.713   1.861   6.651  0.0853 -0.4513 -0.4382
 2842Sol     HW14296   2.743   1.803   6.721 -0.3671  3.7317  3.4569
 2842Sol     HW14297   2.622   1.882   6.675 -0.0590  1.1376 -2.2601
 2842Sol     MW14298   2.707   1.857   6.659 -0.2042 -0.2007 -0.2013
 2843Sol     OW14299   1.634   0.024   9.558 -0.2921  0.3634 -0.2929
 2843Sol     HW14300   1.577  -0.043   9.519 -2.5459  1.4798  1.0269
 2843Sol     HW14301   1.586   0.106   9.548  0.9836  1.3021  1.0822
 2843Sol     MW14302   1.625   0.025   9.554 -0.5811 -0.4258  0.1044
 2844Sol     OW14303   1.996   1.155   3.570  0.4518 -0.4746  0.2771
 2844Sol     HW14304   1.961   1.243   3.554  0.8134 -0.2129  0.9276
 2844Sol     HW14305   2.091   1.167   3.575  0.6865 -1.2531 -1.9114
 2844Sol     MW14306   2.001   1.164   3.569  0.1714  0.1626  0.2754
 2845Sol     OW14307   0.413   1.001   6.855 -0.8084  0.1610  0.0908
 2845Sol     HW14308   0.457   0.932   6.905  0.0081  0.2500 -0.4893
 2845Sol     HW14309   0.461   1.005   6.773 -2.9600 -0.9054 -1.2621
 2845Sol     MW14310   0.421   0.995   6.852  0.2695  0.0579  0.3024
 2846Sol     OW14311   0.874   3.403   8.296 -0.6817  0.0291 -0.3949
 2846Sol     HW14312   0.940   3.429   8.360 -3.9938  3.4112  1.8003
 2846Sol     HW14313   0.817   3.342   8.342 -1.1876 -0.0411 -1.0998
 2846Sol     MW14314   0.875   3.400   8.306  0.2615  0.2033  0.7325
 2847Sol     OW14315   1.556   0.510   1.394 -0.3209 -0.6718  0.2444
 2847Sol     HW14316   1.579   0.440   1.333 -1.4436 -0.4971 -0.3812
 2847Sol     HW14317   1.568   0.591   1.344 -1.1089 -0.5218  0.3025
 2847Sol     MW14318   1.560   0.511   1.384 -0.6812  0.4848 -0.3802
 2848Sol     OW14319   2.704   0.625   8.074 -0.4631  0.3911 -0.2137
 2848Sol     HW14320   2.667   0.619   8.162 -0.4901  1.0270 -0.1806
 2848Sol     HW14321   2.628   0.643   8.017 -0.5664 -0.8243 -0.4763
 2848Sol     MW14322   2.694   0.626   8.076  1.1310 -0.2683 -0.1524
 2849Sol     OW14323   0.718   2.518   4.939  0.2389  0.0772 -0.2918
 2849Sol     HW14324   0.769   2.566   4.874  0.1335  0.6711  0.0655
 2849Sol     HW14325   0.783   2.469   4.990  0.4166  0.5174 -0.0971
 2849Sol     MW14326   0.728   2.518   4.938 -0.2793  0.5035  0.2437
 2850Sol     OW14327   2.249   1.111   4.740 -0.0220  0.2454 -0.2450
 2850Sol     HW14328   2.217   1.188   4.787 -0.3612 -0.2279  0.3024
 2850Sol     HW14329   2.184   1.097   4.671 -1.1023 -0.8084  0.9629
 2850Sol     MW14330   2.240   1.116   4.738 -0.5203  0.3237 -0.5759
 2851Sol     OW14331   1.987   1.782   3.403  0.3602 -0.4718 -0.2528
 2851Sol     HW14332   2.050   1.766   3.474 -0.7253 -2.0395  0.3835
 2851Sol     HW14333   1.994   1.705   3.347 -1.1777 -0.8060 -0.0175
 2851Sol     MW14334   1.993   1.774   3.405  0.7926 -0.3265  0.4890
 2852Sol     OW14335   2.991   3.099   5.650 -0.1866  0.5613 -0.1645
 2852Sol     HW14336   3.047   3.052   5.712  1.5383  2.1856 -0.4431
 2852Sol     HW14337   2.938   3.157   5.706 -0.2926  0.3533 -0.0471
 2852Sol     MW14338   2.991   3.100   5.661 -1.0242 -0.0224  0.3963
 2853Sol     OW14339   1.330   1.683   6.694  0.2040 -0.2514  0.3752
 2853Sol     HW14340   1.400   1.665   6.757 -0.2762 -2.0997  0.4052
 2853Sol     HW14341   1.305   1.774   6.712  2.8459  0.5883  0.0847
 2853Sol     MW14342   1.334   1.690   6.702  0.1303 -0.2668  0.6784
 2854Sol     OW14343   1.897   2.527   4.302  0.0737  0.2359  0.2770
 2854Sol     HW14344   1.971   2.471   4.325 -0.8132 -0.7705  0.7465
 2854Sol     HW14345   1.836   2.517   4.376  0.2749  2.5146  0.8140
 2854Sol     MW14346   1.898   2.521   4.311  0.1886  0.2882  0.5130
 2855Sol     OW14347   0.855   0.439   3.151  0.8174  0.2800 -0.4673
 2855Sol     HW14348   0.900   0.517   3.185  1.7611  0.0504 -1.1544
 2855Sol     HW14349   0.913   0.367   3.173  0.5725 -0.0744 -0.9880
 2855Sol     MW14350   0.865   0.440   3.156 -0.3161  0.0267 -0.0410
 2856Sol     OW14351   2.877   2.064   8.855  0.5681 -0.0493 -0.0855
 2856Sol     HW14352   2.889   1.970   8.842  0.9388 -0.3539  2.3422
 2856Sol     HW14353   2.782   2.075   8.860  0.5833 -0.6860  2.1803
 2856Sol     MW14354   2.870   2.057   8.854 -0.2880 -0.8807  0.5574
 2857Sol     OW14355   3.302   2.060   4.790  0.7604 -0.1933  0.5435
 2857Sol     HW14356   3.324   2.004   4.715  0.4165  1.8666 -1.1292
 2857Sol     HW14357   3.214   2.032   4.816  0.9003 -0.9438  0.2358
 2857Sol     MW14358   3.296   2.052   4.786  0.8266 -0.1564 -0.2674
 2858Sol     OW14359   1.124   0.894   7.834  0.6210  0.5943  0.2712
 2858Sol     HW14360   1.180   0.819   7.815  0.4814  0.4084  0.5876
 2858Sol     HW14361   1.173   0.970   7.803  0.0817  0.2397 -1.5039
 2858Sol     MW14362   1.133   0.894   7.829  0.4614 -0.0350 -0.8170
 2859Sol     OW14363   2.793   2.888   5.002  0.3701  0.3286  0.1723
 2859Sol     HW14364   2.744   2.882   5.084 -0.6361  1.0345 -0.3691
 2859Sol     HW14365   2.834   2.974   5.004 -2.4467  1.8052 -1.5671
 2859Sol     MW14366   2.792   2.895   5.009 -0.6529 -0.0979 -0.4071
 2860Sol     OW14367   0.621   1.387   8.127  0.0243  0.0292 -0.0208
 2860Sol     HW14368   0.535   1.428   8.133 -0.2880 -0.4616 -0.9882
 2860Sol     HW14369   0.656   1.418   8.043  0.6845  0.0299  0.2551
 2860Sol     MW14370   0.616   1.393   8.120 -0.7333 -0.1538  0.1430
 2861Sol     OW14371   0.609   3.134   5.450 -0.0366 -0.2605  0.2173
 2861Sol     HW14372   0.675   3.129   5.520 -1.4532 -1.4262  1.5247
 2861Sol     HW14373   0.554   3.208   5.475 -0.7839 -0.9268  0.5598
 2861Sol     MW14374   0.610   3.140   5.459  0.1521 -0.0664 -0.8341
 2862Sol     OW14375   2.485   3.015   5.154 -0.1374  0.3841  0.3995
 2862Sol     HW14376   2.572   3.010   5.193  1.8418  1.9045 -3.5980
 2862Sol     HW14377   2.469   2.926   5.121 -0.1867  0.0859  1.2017
 2862Sol     MW14378   2.492   3.006   5.155 -0.4396  0.1269  0.1877
 2863Sol     OW14379   2.903   1.273   5.860 -0.1433 -0.6427 -0.5200
 2863Sol     HW14380   2.856   1.312   5.787 -0.2234  1.9779  0.8693
 2863Sol     HW14381   2.995   1.280   5.837 -0.2157 -1.0514 -0.9440
 2863Sol     MW14382   2.907   1.277   5.852  0.2975  0.1929  0.1799
 2864Sol     OW14383   2.405   0.394   5.185 -0.7714  0.4270 -0.5034
 2864Sol     HW14384   2.356   0.448   5.246  0.0211  0.2349  0.3189
 2864Sol     HW14385   2.465   0.455   5.142 -2.4474  0.8616 -2.2996
 2864Sol     MW14386   2.406   0.404   5.186  0.2772 -0.8450 -0.0472
 2865Sol     OW14387   2.434   0.201   2.056  0.5347 -0.4152  0.2758
 2865Sol     HW14388   2.340   0.201   2.071  0.2192  0.4360 -1.5001
 2865Sol     HW14389   2.453   0.112   2.025  0.2059 -0.3886 -0.0018
 2865Sol     MW14390   2.427   0.193   2.054  0.0560  0.1217 -0.4075
 2866Sol     OW14391   2.122   1.859   4.504 -0.1262  0.0131 -0.3847
 2866Sol     HW14392   2.037   1.816   4.515 -0.0510 -0.7513 -2.6782
 2866Sol     HW14393   2.100   1.950   4.485 -0.4858 -0.3949 -1.9906
 2866Sol     MW14394   2.112   1.863   4.503  0.3809 -0.0104 -0.0932
 2867Sol     OW14395   0.218   0.844   6.770 -0.0874 -0.5627  0.1526
 2867Sol     HW14396   0.154   0.874   6.834  0.0751 -0.2701  0.1796
 2867Sol     HW14397   0.294   0.901   6.784 -0.1312 -0.3474 -0.4485
 2867Sol     MW14398   0.219   0.852   6.777 -0.3967 -0.2635  0.4778
 2868Sol     OW14399   1.153   1.732   9.915  0.0179  0.1834 -0.1374
 2868Sol     HW14400   1.143   1.657   9.974 -0.9162  0.4955  0.1128
 2868Sol     HW14401   1.067   1.773   9.914  0.2814  0.7311 -0.9887
 2868Sol     MW14402   1.144   1.729   9.920  0.4924 -0.2490  0.6475
 2869Sol     OW14403   0.595   1.843   2.508 -0.3018  0.0262 -1.1132
 2869Sol     HW14404   0.589   1.762   2.457 -3.9132  0.4012 -1.3709
 2869Sol     HW14405   0.617   1.813   2.597 -0.2278 -1.1266 -1.5036
 2869Sol     MW14406   0.597   1.833   2.511 -0.3558 -0.2546 -0.2467
 2870Sol     OW14407   0.890   2.815   3.377  0.3426  0.6956 -0.0974
 2870Sol     HW14408   0.852   2.826   3.289  0.6462  0.1152 -0.3007
 2870Sol     HW14409   0.984   2.829   3.364  0.4555  0.0604  0.0362
 2870Sol     MW14410   0.895   2.817   3.368 -1.1165  0.1304 -0.0121
 2871Sol     OW14411   0.729   0.059   2.153  0.6438 -0.1396  0.2244
 2871Sol     HW14412   0.694  -0.030   2.158  2.2640 -0.7065  2.1703
 2871Sol     HW14413   0.663   0.112   2.198 -0.6135 -0.2377 -1.4583
 2871Sol     MW14414   0.720   0.056   2.158 -0.0487 -0.0750 -0.3389
 2872Sol     OW14415   2.280   1.365   8.434  0.7884  0.0932 -0.4727
 2872Sol     HW14416   2.243   1.363   8.346  1.3084  1.5622 -0.7519
 2872Sol     HW14417   2.355   1.305   8.430  0.2503 -0.5604 -0.7621
 2872Sol     MW14418   2.284   1.360   8.425  0.4167  0.0763  0.4752
 2873Sol     OW14419   1.556   1.523   8.859  0.3681 -0.1819  0.3814
 2873Sol     HW14420   1.486   1.460   8.840  0.5311 -0.4738  0.7379
 2873Sol     HW14421   1.583   1.555   8.773 -0.4057  0.1531  0.2562
 2873Sol     MW14422   1.552   1.520   8.850  0.1087  0.5353 -0.6950
 2874Sol     OW14423   0.237   0.928   8.595  0.2623  0.4353 -0.1348
 2874Sol     HW14424   0.202   0.928   8.684 -2.3221 -1.2009 -1.1014
 2874Sol     HW14425   0.170   0.974   8.543  1.1307  0.2353 -1.4554
 2874Sol     MW14426   0.228   0.932   8.598 -0.2608 -0.4028  0.0331
 2875Sol     OW14427   0.996   2.341   8.944  0.3108 -0.6079  0.0628
 2875Sol     HW14428   0.958   2.253   8.936 -1.0457  0.1010 -1.3290
 2875Sol     HW14429   0.985   2.363   9.037 -1.3696 -0.9948 -0.0322
 2875Sol     MW14430   0.992   2.335   8.952 -0.3066  0.5957  0.2063
 2876Sol     OW14431   0.819   0.483   2.284  1.0092 -0.6581 -0.2222
 2876Sol     HW14432   0.876   0.493   2.208 -0.0790  1.7507 -0.7599
 2876Sol     HW14433   0.730   0.479   2.248  0.3702  1.8876  0.9664
 2876Sol     MW14434   0.816   0.483   2.274 -0.1521 -0.2512 -0.2806
 2877Sol     OW14435   3.076   1.031   8.235  0.5662  0.3376  0.0684
 2877Sol     HW14436   3.141   0.997   8.174  0.0116 -0.3652 -0.1342
 2877Sol     HW14437   3.005   0.967   8.234 -0.1187  1.0692  0.3132
 2877Sol     MW14438   3.075   1.023   8.229  0.0256  0.1210  0.3077
 2878Sol     OW14439   2.998   1.770   3.555 -0.4676  0.6020 -0.1135
 2878Sol     HW14440   3.043   1.696   3.595 -1.9072  0.4064  1.1616
 2878Sol     HW14441   2.980   1.741   3.465 -0.0382 -0.1633  0.0436
 2878Sol     MW14442   3.001   1.761   3.550 -0.5722  0.1101  0.4481
 2879Sol     OW14443   2.694   0.006   9.769  0.1631  0.3966 -0.5046
 2879Sol     HW14444   2.685   0.093   9.729  1.5358  0.7865 -0.0014
 2879Sol     HW14445   2.643  -0.052   9.712  1.7080  1.0199 -2.5678
 2879Sol     MW14446   2.688   0.009   9.760 -0.4378 -0.0466 -0.4118
 2880Sol     OW14447   0.603   1.154   9.538 -0.4374  0.1564  0.1109
 2880Sol     HW14448   0.518   1.113   9.555 -0.7429  0.5319 -0.4950
 2880Sol     HW14449   0.665   1.081   9.540 -0.5678  0.0793  1.9557
 2880Sol     MW14450   0.601   1.143   9.539  0.0574  0.8182 -0.3408
 2881Sol     OW14451   3.143   2.914   6.825 -0.0017  0.3959  0.4109
 2881Sol     HW14452   3.112   3.005   6.817  0.3056  0.3746 -1.1789
 2881Sol     HW14453   3.063   2.864   6.842 -0.4060  0.7700 -0.3324
 2881Sol     MW14454   3.133   2.918   6.825 -0.3443  0.2665 -0.8180
 2882Sol     OW14455   0.344   0.104   7.647  0.0542 -0.0640 -0.2141
 2882Sol     HW14456   0.366   0.172   7.710  1.2707 -1.0397  0.4493
 2882Sol     HW14457   0.429   0.069   7.619 -0.5528 -1.4880 -0.3158
 2882Sol     MW14458   0.354   0.107   7.650  0.2161  0.0149  0.3290
 2883Sol     OW14459   3.264   1.513   4.384  0.3839 -0.4283  0.0448
 2883Sol     HW14460   3.183   1.553   4.355  0.3408  0.0482  0.7973
 2883Sol     HW14461   3.308   1.581   4.435  1.7661 -0.3188 -1.2548
 2883Sol     MW14462   3.261   1.522   4.386  0.3975  0.5476 -0.1438
 2884Sol     OW14463   1.637   1.850   7.421 -0.3737 -0.1630 -0.0077
 2884Sol     HW14464   1.616   1.864   7.329 -1.0807  0.5772  0.2636
 2884Sol     HW14465   1.671   1.934   7.452  0.3167 -0.5462  0.2867
 2884Sol     MW14466   1.638   1.858   7.416 -0.3205  0.2013  0.5455
 2885Sol     OW14467   1.587   0.531   5.310 -0.5356 -0.7801  0.3297
 2885Sol     HW14468   1.501   0.527   5.270 -0.5170 -1.8567  0.3992
 2885Sol     HW14469   1.606   0.625   5.317 -1.1436 -0.5701 -0.8564
 2885Sol     MW14470   1.581   0.539   5.307  0.4193  0.1029  0.1928
 2886Sol     OW14471   2.447   1.879   6.747  0.1772  0.0175  0.6036
 2886Sol     HW14472   2.394   1.821   6.801 -0.2561 -1.0791 -0.9708
 2886Sol     HW14473   2.385   1.942   6.710  0.6134  1.3770  2.1345
 2886Sol     MW14474   2.437   1.879   6.748  0.5371  0.0300  0.1031
 2887Sol     OW14475   3.306   0.991   5.168 -0.2263  0.3934 -0.0026
 2887Sol     HW14476   3.377   1.055   5.173  0.2321 -0.1288  0.2610
 2887Sol     HW14477   3.279   0.978   5.259 -3.1253  3.2781 -0.3484
 2887Sol     MW14478   3.310   0.996   5.176 -0.1558  0.2473  0.0450
 2888Sol     OW14479   1.483   2.424   2.535 -0.7363 -0.5102 -0.0073
 2888Sol     HW14480   1.505   2.338   2.499 -2.5317 -0.7007 -0.7289
 2888Sol     HW14481   1.444   2.472   2.462 -1.5086  0.2287  0.8681
 2888Sol     MW14482   1.481   2.421   2.525  0.0076 -0.5034  0.0792
 2889Sol     OW14483   0.467   2.779   2.331  0.5582 -0.2287 -0.1832
 2889Sol     HW14484   0.464   2.858   2.384  0.3424 -0.6963  0.5099
 2889Sol     HW14485   0.560   2.764   2.315  0.6799 -0.5460  0.7672
 2889Sol     MW14486   0.475   2.785   2.334 -0.5319  0.3312 -0.4285
 2890Sol     OW14487   0.233   0.435   5.550  0.3329 -0.4823 -0.5799
 2890Sol     HW14488   0.227   0.340   5.543  1.5441 -0.4768 -1.9084
 2890Sol     HW14489   0.186   0.456   5.630  1.1082 -2.3118  0.3851
 2890Sol     MW14490   0.228   0.428   5.556 -0.2005  0.0964  0.3461
 2891Sol     OW14491   0.199   1.579   8.470  0.7974  0.0884  0.1803
 2891Sol     HW14492   0.191   1.488   8.500  0.6502  0.3127  0.8288
 2891Sol     HW14493   0.124   1.623   8.509  0.5962  0.3855 -0.5312
 2891Sol     MW14494   0.191   1.574   8.476 -0.3455 -0.5100  0.0455
 2892Sol     OW14495   2.422   2.191   6.399  0.1115 -0.0928  0.4437
 2892Sol     HW14496   2.397   2.272   6.443 -1.6244 -0.6549  0.5202
 2892Sol     HW14497   2.500   2.214   6.349 -0.0164  1.4669  0.9342
 2892Sol     MW14498   2.427   2.200   6.399 -0.3487 -0.1021 -0.1874
 2893Sol     OW14499   1.585   3.366   6.571 -0.2514 -0.5701  0.2442
 2893Sol     HW14500   1.550   3.278   6.579 -0.8408 -0.4365 -0.7020
 2893Sol     HW14501   1.582   3.384   6.477  0.7711  0.0937  0.3241
 2893Sol     MW14502   1.582   3.360   6.563  0.7474 -0.3265 -0.0198
 2894Sol     OW14503   0.121   2.425   4.544  0.1891  0.4286 -0.5741
 2894Sol     HW14504   0.184   2.463   4.605 -0.4071 -1.1433  1.0645
 2894Sol     HW14505   0.170   2.360   4.495 -0.1969 -0.9713  0.8756
 2894Sol     MW14506   0.131   2.423   4.545 -0.5062 -0.0439  0.0618
 2895Sol     OW14507   1.988   2.949   1.992 -0.7560 -0.3947  0.1044
 2895Sol     HW14508   2.051   3.022   1.993  0.2690 -1.2373 -0.9993
 2895Sol     HW14509   1.903   2.991   1.984 -0.2118  0.7145  0.0384
 2895Sol     MW14510   1.986   2.959   1.991 -0.4905 -0.0685 -0.0585
 2896Sol     OW14511   1.933   0.834   4.674 -1.0970  0.6079 -0.1104
 2896Sol     HW14512   1.935   0.835   4.578  0.4381  0.1750 -0.0974
 2896Sol     HW14513   1.876   0.760   4.695  2.3529 -2.3925 -0.7336
 2896Sol     MW14514   1.928   0.827   4.667  0.2673  0.5826  0.4680
 2897Sol     OW14515   1.899   0.092   3.089  0.1125  0.1773  0.2323
 2897Sol     HW14516   1.972   0.128   3.139  0.2145  0.5221 -0.1633
 2897Sol     HW14517   1.821   0.122   3.135  0.1856  1.5150 -0.5094
 2897Sol     MW14518   1.898   0.098   3.098  0.1308  0.2431 -0.1323
 2898Sol     OW14519   2.411   0.685   5.251  0.0820  0.4809 -0.1897
 2898Sol     HW14520   2.365   0.725   5.177 -1.8139 -0.6331  0.3645
 2898Sol     HW14521   2.396   0.744   5.324 -0.1631  0.2821 -0.0829
 2898Sol     MW14522   2.406   0.694   5.251 -0.1275  0.0535 -0.9638
 2899Sol     OW14523   2.255   3.064   5.908 -0.1100 -0.2656  0.4462
 2899Sol     HW14524   2.290   3.028   5.827 -0.3244  1.3461 -0.3851
 2899Sol     HW14525   2.332   3.081   5.963  0.2434  0.9111 -0.3863
 2899Sol     MW14526   2.265   3.063   5.906 -0.3721  0.3409  0.5974
 2900Sol     OW14527   1.194   2.771   8.223 -0.4525 -0.2717  0.1160
 2900Sol     HW14528   1.121   2.713   8.246 -0.5191  0.4328  1.7767
 2900Sol     HW14529   1.218   2.813   8.306  1.0789  0.3774 -0.6328
 2900Sol     MW14530   1.190   2.769   8.233 -0.5325 -0.2339  0.4560
 2901Sol     OW14531   2.339   2.689   3.341  0.0757  0.4457  0.0503
 2901Sol     HW14532   2.400   2.758   3.366  1.2835 -0.5265 -0.2025
 2901Sol     HW14533   2.372   2.610   3.383  0.4395 -0.6069 -2.1091
 2901Sol     MW14534   2.347   2.688   3.347 -0.6127  0.5240 -0.5255
 2902Sol     OW14535   1.901   0.637   3.411 -0.0393 -0.0138  0.2546
 2902Sol     HW14536   1.816   0.599   3.431 -0.0972  0.5161  1.0662
 2902Sol     HW14537   1.887   0.688   3.331 -0.3680 -0.3120  0.1218
 2902Sol     MW14538   1.892   0.638   3.406  0.3476  0.2093 -0.3562
 2903Sol     OW14539   0.522   0.774   2.281 -0.5416  0.1241  0.4951
 2903Sol     HW14540   0.546   0.758   2.372  0.6289  2.8242  0.7322
 2903Sol     HW14541   0.431   0.804   2.285 -0.0886  1.4706  0.9389
 2903Sol     MW14542   0.516   0.776   2.289 -0.7994  0.8426  0.0843
 2904Sol     OW14543   1.276   2.298   3.369  0.8484  1.0280 -0.8043
 2904Sol     HW14544   1.285   2.301   3.465 -2.3429  0.8798 -0.4402
 2904Sol     HW14545   1.339   2.232   3.341 -0.3800 -1.2734  1.5803
 2904Sol     MW14546   1.282   2.292   3.375 -0.0395 -0.0003 -0.5364
 2905Sol     OW14547   0.272   2.501   6.399  0.1494  0.3620  0.2133
 2905Sol     HW14548   0.214   2.568   6.434 -0.8701 -0.2262 -0.3129
 2905Sol     HW14549   0.313   2.462   6.476  2.7087  3.2715  0.4080
 2905Sol     MW14550   0.270   2.503   6.409 -0.1687 -0.5063  0.3184
 2906Sol     OW14551   2.015   2.485   7.806 -0.1193  0.2536 -0.3897
 2906Sol     HW14552   1.949   2.452   7.866  1.4913 -2.0434  0.1727
 2906Sol     HW14553   2.089   2.509   7.863  0.2460  1.0363 -1.1740
 2906Sol     MW14554   2.016   2.484   7.816 -0.2132  0.3858  0.5802
 2907Sol     OW14555   1.741   0.646   4.726  0.8162 -0.4286 -0.0325
 2907Sol     HW14556   1.708   0.654   4.816  1.3233  0.7469  0.0625
 2907Sol     HW14557   1.768   0.555   4.718 -0.4013 -0.8568  0.6056
 2907Sol     MW14558   1.740   0.639   4.733 -0.2004  0.6172 -0.0587
 2908Sol     OW14559   1.369   1.498   7.756  0.7206 -0.4038  0.0256
 2908Sol     HW14560   1.281   1.510   7.722  0.6050  0.2944  0.5497
 2908Sol     HW14561   1.380   1.403   7.762 -0.4400 -0.4874  1.0774
 2908Sol     MW14562   1.362   1.491   7.754 -0.1619  0.5985 -0.1262
 2909Sol     OW14563   2.150   0.308   4.081  0.0363 -0.0890  0.6252
 2909Sol     HW14564   2.144   0.384   4.025  0.7959 -0.6675 -0.2555
 2909Sol     HW14565   2.234   0.267   4.058 -0.9860 -1.9593  0.0944
 2909Sol     MW14566   2.157   0.311   4.074  0.3167  0.8065 -0.4393
 2910Sol     OW14567   0.970   3.228   2.788 -0.2506  0.0542  0.3369
 2910Sol     HW14568   0.997   3.247   2.698 -0.8252  0.5075  0.2535
 2910Sol     HW14569   0.877   3.207   2.780 -0.0297 -1.0659  0.6694
 2910Sol     MW14570   0.964   3.228   2.779  0.5094 -0.2126 -0.5324
 2911Sol     OW14571   2.404   0.320   3.017  0.3387 -0.3294  0.3764
 2911Sol     HW14572   2.414   0.340   3.110  1.7239  0.0572  0.1662
 2911Sol     HW14573   2.436   0.399   2.972 -0.6257 -0.3879 -0.4268
 2911Sol     MW14574   2.408   0.329   3.021  0.2301  0.2697  0.1442
 2912Sol     OW14575   0.518   2.402   4.608  0.1964  0.4665  1.0596
 2912Sol     HW14576   0.531   2.353   4.689  1.5648 -0.5107  0.2888
 2912Sol     HW14577   0.482   2.486   4.636 -1.2000 -0.5889  2.5014
 2912Sol     MW14578   0.516   2.405   4.618  0.0859  0.1748 -0.3944
 2913Sol     OW14579   0.372   1.377   7.899  1.0030  0.3392  0.0182
 2913Sol     HW14580   0.382   1.414   7.987  2.1720  0.2064 -0.0519
 2913Sol     HW14581   0.307   1.307   7.910  0.6726  0.7396  0.6436
 2913Sol     MW14582   0.367   1.374   7.908  0.5348  0.7704 -0.8365
 2914Sol     OW14583   1.812   0.520   8.946  0.1371 -0.5811  0.2186
 2914Sol     HW14584   1.740   0.571   8.910  2.3414  1.1655 -1.8463
 2914Sol     HW14585   1.823   0.553   9.035  1.1495  2.2263 -0.8937
 2914Sol     MW14586   1.807   0.527   8.951 -0.0917  0.5536  0.1947
 2915Sol     OW14587   0.162   0.053   5.791  0.0069  0.1644 -0.0282
 2915Sol     HW14588   0.090  -0.010   5.794  0.0680  0.1373  2.3590
 2915Sol     HW14589   0.152   0.098   5.707 -1.8372 -0.9377 -0.4182
 2915Sol     MW14590   0.155   0.051   5.784 -0.1628  0.0503 -0.0376
 2916Sol     OW14591   0.980   2.352   3.850  0.9126  0.3458 -1.0662
 2916Sol     HW14592   0.899   2.351   3.903  1.1288 -0.7311 -0.7566
 2916Sol     HW14593   1.035   2.284   3.889  1.7192  0.6424 -1.6851
 2916Sol     MW14594   0.977   2.346   3.859 -0.3868  0.4857 -0.4152
 2917Sol     OW14595   0.778   2.278   4.076 -0.2634  0.1031 -0.1739
 2917Sol     HW14596   0.778   2.195   4.027 -1.5793  0.1821 -0.3247
 2917Sol     HW14597   0.686   2.299   4.087  0.0426  0.7074  1.3145
 2917Sol     MW14598   0.770   2.272   4.072 -0.4353  0.1420 -0.2263
 2918Sol     OW14599   2.072   2.909   7.105 -0.4242 -0.2537  0.0162
 2918Sol     HW14600   2.057   2.862   7.023 -2.4281  0.3465  0.0209
 2918Sol     HW14601   1.985   2.925   7.140  0.3005  1.6751  1.0294
 2918Sol     MW14602   2.063   2.906   7.101  0.3601  0.2219  0.4289
 2919Sol     OW14603   2.565   1.789   5.947  0.4900  0.2888  0.3472
 2919Sol     HW14604   2.626   1.716   5.935 -0.0059 -0.3614  1.7133
 2919Sol     HW14605   2.584   1.822   6.034  1.2256  2.3046 -0.5368
 2919Sol     MW14606   2.572   1.786   5.953 -0.4121  0.7041  0.1504
 2920Sol     OW14607   2.644   2.766   4.113  0.0595  0.1502  0.1893
 2920Sol     HW14608   2.680   2.813   4.038 -0.6354  0.8976  0.3088
 2920Sol     HW14609   2.555   2.742   4.087  0.7006 -1.9110 -0.2039
 2920Sol     MW14610   2.639   2.768   4.104 -0.0471 -0.4553 -0.7182
 2921Sol     OW14611   2.633   1.548   5.149 -0.4343  0.3164 -0.2801
 2921Sol     HW14612   2.666   1.470   5.106 -0.7327 -0.3590  0.7107
 2921Sol     HW14613   2.676   1.621   5.103 -0.0167 -0.4230 -1.0747
 2921Sol     MW14614   2.639   1.548   5.141 -0.0176  0.4576 -0.0363
 2922Sol     OW14615   0.440   0.361   9.919 -0.1308  0.2521 -0.0589
 2922Sol     HW14616   0.393   0.396   9.843 -0.9313  0.7920  0.6815
 2922Sol     HW14617   0.445   0.267   9.903  0.7469  0.4959 -1.3473
 2922Sol     MW14618   0.437   0.356   9.910 -0.0589 -0.9971 -0.8352
 2923Sol     OW14619   1.864   1.114   8.524  0.7223 -0.4539  0.1943
 2923Sol     HW14620   1.774   1.148   8.531  0.8871 -0.2453  1.4595
 2923Sol     HW14621   1.862   1.031   8.572  0.3967 -2.1507 -2.6409
 2923Sol     MW14622   1.855   1.110   8.529 -0.3646  0.1385 -0.2606
 2924Sol     OW14623   1.111   2.320   1.980 -0.4090 -0.8185 -0.4869
 2924Sol     HW14624   1.111   2.319   1.884  1.0792  2.2223 -0.5688
 2924Sol     HW14625   1.024   2.353   2.003 -1.3339 -2.9879 -0.6959
 2924Sol     MW14626   1.103   2.323   1.973 -0.1137 -0.1672  0.4494
 2925Sol     OW14627   3.007   1.238   3.068  0.4278  0.0934  0.1192
 2925Sol     HW14628   3.003   1.157   3.118  2.1511  0.9722  1.7659
 2925Sol     HW14629   3.065   1.218   2.994  0.2762 -0.3774  0.1284
 2925Sol     MW14630   3.012   1.229   3.066  0.0861  0.0158  0.2748
 2926Sol     OW14631   2.704   1.979   3.911  0.0474 -0.3613 -0.1573
 2926Sol     HW14632   2.686   1.943   3.997  0.1312 -1.1544 -0.4642
 2926Sol     HW14633   2.770   1.920   3.873  0.6450  0.4603 -0.4332
 2926Sol     MW14634   2.709   1.971   3.915  0.0121  0.6030  0.2633
 2927Sol     OW14635   0.772   1.824   5.422 -0.1577 -0.0023  0.4495
 2927Sol     HW14636   0.797   1.732   5.408  0.8923  0.1166  1.4873
 2927Sol     HW14637   0.686   1.820   5.462 -0.2345 -0.5248  0.2396
 2927Sol     MW14638   0.766   1.815   5.424  0.2834  0.0069  0.5430
 2928Sol     OW14639   2.925   1.002   3.179  0.3073  0.4162  0.0281
 2928Sol     HW14640   2.850   0.982   3.234  0.9911 -0.7800  0.5498
 2928Sol     HW14641   2.993   0.941   3.207  0.9316  0.3313 -1.5811
 2928Sol     MW14642   2.924   0.995   3.186 -0.0999 -0.4423  0.3125
 2929Sol     OW14643   0.286   1.690   7.700 -0.1091  0.3925 -0.1592
 2929Sol     HW14644   0.369   1.722   7.735 -0.5706  1.0830  0.3070
 2929Sol     HW14645   0.261   1.754   7.634 -0.7360  0.6778  0.3555
 2929Sol     MW14646   0.292   1.698   7.697 -0.0360  0.9557  0.2145
 2930Sol     OW14647   1.401   1.824   9.887 -0.2170 -0.5202  0.4175
 2930Sol     HW14648   1.309   1.797   9.886 -0.0714 -1.0318 -1.4100
 2930Sol     HW14649   1.425   1.829   9.795  1.4406  0.1473  0.8716
 2930Sol     MW14650   1.395   1.822   9.879  0.2018  0.2721 -0.5677
 2931Sol     OW14651   0.516   1.802   8.569 -0.4102  0.0333  0.4274
 2931Sol     HW14652   0.503   1.744   8.644 -1.6438 -0.7613 -0.3823
 2931Sol     HW14653   0.477   1.885   8.596 -1.0104 -0.3045  0.5968
 2931Sol     MW14654   0.511   1.804   8.578 -0.3947 -0.6016  0.1512
 2932Sol     OW14655   1.434   1.111   7.071 -0.5094 -0.1539  0.1577
 2932Sol     HW14656   1.365   1.122   7.136 -0.5355  0.4789  0.0257
 2932Sol     HW14657   1.443   1.197   7.031  0.5613 -0.1591  0.3753
 2932Sol     MW14658   1.428   1.120   7.073 -0.2181  0.3597  0.3475
 2933Sol     OW14659   1.558   0.830   7.060 -0.1412 -0.1092 -0.3945
 2933Sol     HW14660   1.498   0.904   7.067 -0.0530  0.0356 -1.0964
 2933Sol     HW14661   1.542   0.795   6.972  0.9022  0.0334 -0.6536
 2933Sol     MW14662   1.551   0.834   7.053  0.2342 -0.3778  0.2502
 2934Sol     OW14663   1.399   1.059   7.436  0.1776 -0.5705  0.3356
 2934Sol     HW14664   1.409   1.153   7.422  0.6716 -0.6429  0.1941
 2934Sol     HW14665   1.487   1.023   7.423 -0.1262 -1.1277 -0.1852
 2934Sol     MW14666   1.408   1.064   7.434  0.5487 -0.1732 -0.4057
 2935Sol     OW14667   1.481   1.331   8.334  0.0724  0.4698 -0.8672
 2935Sol     HW14668   1.394   1.346   8.371 -0.3233 -1.1043 -1.1077
 2935Sol     HW14669   1.505   1.414   8.293 -0.7017  1.3584  0.4326
 2935Sol     MW14670   1.475   1.340   8.334  0.2878  0.1882  0.3149
 2936Sol     OW14671   2.156   0.500   2.016  0.1596 -0.7269 -0.3956
 2936Sol     HW14672   2.165   0.540   2.102 -0.6912 -1.4918  0.0664
 2936Sol     HW14673   2.061   0.495   2.002  0.3026 -0.0227 -1.6567
 2936Sol     MW14674   2.148   0.503   2.022 -0.1876  0.0415 -0.5007
 2937Sol     OW14675   0.025   2.044   7.172  0.1534  0.0283 -0.0187
 2937Sol     HW14676  -0.033   1.975   7.140  0.5351 -0.8260  1.0815
 2937Sol     HW14677   0.053   2.091   7.094 -2.3818  0.7637 -0.5453
 2937Sol     MW14678   0.022   2.042   7.162  0.5585 -0.1089  0.4441
 2938Sol     OW14679   2.708   0.705   9.848 -0.0311  0.1918  0.2473
 2938Sol     HW14680   2.670   0.792   9.857 -1.0692 -0.1976 -0.2165
 2938Sol     HW14681   2.652   0.649   9.903 -0.8050 -0.5764 -1.2818
 2938Sol     MW14682   2.699   0.708   9.854 -0.5027 -0.2325  0.2055
 2939Sol     OW14683   1.738   1.785   5.933  0.1732 -0.0252  0.6135
 2939Sol     HW14684   1.767   1.876   5.941  0.6917  0.0829 -2.0225
 2939Sol     HW14685   1.646   1.791   5.906  0.2147 -0.2943  0.4142
 2939Sol     MW14686   1.732   1.793   5.931 -0.1787  0.1305 -0.2753
 2940Sol     OW14687   2.228   3.383   7.113  0.3908 -0.0068  0.2699
 2940Sol     HW14688   2.241   3.385   7.208  0.8996 -1.4918  0.2430
 2940Sol     HW14689   2.233   3.291   7.090  1.0325  0.4149 -1.3198
 2940Sol     MW14690   2.229   3.375   7.120  0.1202 -0.4714 -0.4721
 2941Sol     OW14691   2.729   3.260   1.836 -0.0094  0.0616 -0.0559
 2941Sol     HW14692   2.758   3.238   1.747  0.2514 -0.0563  0.0553
 2941Sol     HW14693   2.726   3.176   1.881  1.5730  0.3143  0.5437
 2941Sol     MW14694   2.732   3.250   1.832  0.2742  0.3350 -0.0955
 2942Sol     OW14695   2.855   1.198   1.506  0.3583 -0.1489  0.1575
 2942Sol     HW14696   2.760   1.212   1.512  0.2482 -0.9791  0.4864
 2942Sol     HW14697   2.864   1.103   1.506  1.1670 -0.0684 -0.3434
 2942Sol     MW14698   2.847   1.191   1.507 -0.7836  0.3378 -0.0526
 2943Sol     OW14699   3.169   0.314   3.648  0.5695  0.2515 -0.4495
 2943Sol     HW14700   3.195   0.399   3.612 -0.4325 -0.3506 -2.6477
 2943Sol     HW14701   3.095   0.286   3.595 -0.0774 -1.3380  1.2088
 2943Sol     MW14702   3.165   0.319   3.640 -0.1945 -0.1172 -0.2898
 2944Sol     OW14703   3.192   2.193   5.990 -0.0619  0.9089  0.2080
 2944Sol     HW14704   3.183   2.117   5.932  0.9742  2.2529 -1.7838
 2944Sol     HW14705   3.122   2.182   6.055 -1.9052 -0.1329 -1.8716
 2944Sol     MW14706   3.185   2.185   5.991  0.3442  0.2114  0.6671
 2945Sol     OW14707   1.346   1.345   8.768  0.5726 -0.0402 -0.3777
 2945Sol     HW14708   1.295   1.400   8.827 -0.5580  1.4350 -2.6550
 2945Sol     HW14709   1.310   1.257   8.781 -0.9871  0.5892 -0.2597
 2945Sol     MW14710   1.338   1.342   8.774 -0.6217  0.3540  0.2718
 2946Sol     OW14711   3.032   3.440   5.726  0.7795 -0.0614 -0.5307
 2946Sol     HW14712   3.012   3.525   5.765 -0.2963  0.0633 -1.3330
 2946Sol     HW14713   2.952   3.415   5.680  0.7998 -1.8848  0.3533
 2946Sol     MW14714   3.023   3.445   5.726  0.2963  0.3345  0.4528
 2947Sol     OW14715   2.611   0.973   8.765  0.1933 -0.2417  0.4924
 2947Sol     HW14716   2.534   0.926   8.732  1.7320 -1.9508 -0.8095
 2947Sol     HW14717   2.583   1.011   8.848 -2.0878 -0.7098 -0.0350
 2947Sol     MW14718   2.602   0.972   8.769 -0.2475 -0.3093 -0.0010
 2948Sol     OW14719   1.604   3.334   3.601  0.0533  0.1524 -0.6041
 2948Sol     HW14720   1.547   3.406   3.573  0.2417  0.3136 -0.5689
 2948Sol     HW14721   1.625   3.354   3.692  0.0758  0.0332 -0.5827
 2948Sol     MW14722   1.601   3.342   3.607  0.6553 -0.0532 -0.0224
 2949Sol     OW14723   2.551   2.400   4.029 -0.5655 -0.4380 -0.0575
 2949Sol     HW14724   2.616   2.424   4.095 -1.5789 -1.4260  1.3142
 2949Sol     HW14725   2.602   2.356   3.960  0.7185  1.9094 -0.7034
 2949Sol     MW14726   2.562   2.398   4.028 -0.4902  0.5883 -0.3658
 2950Sol     OW14727   0.640   1.890   1.727 -0.4034 -0.0239  0.1997
 2950Sol     HW14728   0.685   1.808   1.746  2.4712  1.8557  1.9131
 2950Sol     HW14729   0.655   1.904   1.633 -1.4659 -1.7316 -0.2483
 2950Sol     MW14730   0.646   1.884   1.720  0.5619  0.1884  0.0783
 2951Sol     OW14731   1.427   0.494   2.013  0.2860 -0.0731  0.2805
 2951Sol     HW14732   1.365   0.545   1.961 -0.0404 -0.5612  0.1969
 2951Sol     HW14733   1.398   0.506   2.103  0.4987  0.2842  0.3046
 2951Sol     MW14734   1.419   0.500   2.016 -0.4212 -0.3642 -0.9686
 2952Sol     OW14735   0.849   2.396   6.914  0.1912 -0.4053  0.3336
 2952Sol     HW14736   0.760   2.361   6.910  0.8080 -2.1920  1.5528
 2952Sol     HW14737   0.893   2.342   6.979  3.1633 -1.8011 -2.6896
 2952Sol     MW14738   0.845   2.388   6.920  0.0185  0.6329  0.2215
 2953Sol     OW14739   2.076   2.451   5.633  0.3762  0.3093 -0.4621
 2953Sol     HW14740   2.072   2.435   5.727 -0.1482  0.2124 -0.4976
 2953Sol     HW14741   2.122   2.375   5.597  0.9394  0.5455 -0.2373
 2953Sol     MW14742   2.080   2.442   5.638  0.6581 -0.1087 -0.2050
 2954Sol     OW14743   0.140   2.583   8.699 -0.0268  0.0206 -0.1289
 2954Sol     HW14744   0.122   2.546   8.785 -0.4564  0.0684 -0.1976
 2954Sol     HW14745   0.130   2.510   8.638 -2.5458  0.6087 -0.4461
 2954Sol     MW14746   0.138   2.573   8.701  0.0131 -0.4551  0.1439
 2955Sol     OW14747   3.109   1.565   7.909  0.7176 -0.0433 -0.1295
 2955Sol     HW14748   3.066   1.565   7.823  1.2860  0.6289 -0.4169
 2955Sol     HW14749   3.191   1.612   7.895  1.1052 -0.4712  0.6419
 2955Sol     MW14750   3.112   1.569   7.900 -0.3112 -0.6162  0.3558
 2956Sol     OW14751   0.233   1.304   8.556  0.1608  0.3282  0.1690
 2956Sol     HW14752   0.309   1.259   8.517  0.4668  1.5455 -0.6609
 2956Sol     HW14753   0.258   1.320   8.647 -0.0467 -1.3910  0.5440
 2956Sol     MW14754   0.242   1.301   8.560 -0.3987  0.2328  0.0631
 2957Sol     OW14755   0.080   0.898   2.020  0.1230 -0.0026  0.5666
 2957Sol     HW14756   0.006   0.957   2.007 -0.8342 -1.4538 -0.7069
 2957Sol     HW14757   0.065   0.827   1.958  4.3544  1.3174 -2.1770
 2957Sol     MW14758   0.072   0.897   2.013 -0.3269  0.2320 -0.0628
 2958Sol     OW14759   0.160   0.606   5.326  0.2180 -0.2887 -0.0510
 2958Sol     HW14760   0.222   0.679   5.318 -0.2486  0.1231  0.0900
 2958Sol     HW14761   0.200   0.548   5.391 -0.1918  0.6342  1.0423
 2958Sol     MW14762   0.169   0.607   5.331  0.7225  0.5059 -0.1249
 2959Sol     OW14763   2.253   0.050   6.011 -0.4130 -0.4140  0.3222
 2959Sol     HW14764   2.254   0.003   5.928  0.4895  1.7407 -0.9385
 2959Sol     HW14765   2.163   0.078   6.022 -0.1614  0.9482 -0.9247
 2959Sol     MW14766   2.245   0.048   6.005 -0.0975  0.4653  0.0778
 2960Sol     OW14767   2.948   3.367   9.880  0.3165 -0.0445  0.3980
 2960Sol     HW14768   2.987   3.325   9.804  0.3985  1.9431 -0.6788
 2960Sol     HW14769   2.854   3.370   9.860 -0.0551 -2.1473  1.6814
 2960Sol     MW14770   2.943   3.363   9.872 -0.1739 -0.1742 -0.2233
 2961Sol     OW14771   0.305   3.125   5.951 -0.0890  0.4679 -0.0884
 2961Sol     HW14772   0.323   3.195   5.888  1.1360 -0.9960 -1.4178
 2961Sol     HW14773   0.355   3.150   6.029  1.7033  0.2803 -1.1285
 2961Sol     MW14774   0.311   3.133   5.952 -0.1350  0.2318  0.0945
 2962Sol     OW14775   2.038   1.802   4.925 -0.2678 -0.0062  0.0285
 2962Sol     HW14776   2.120   1.829   4.884  0.4324 -0.7562  0.9144
 2962Sol     HW14777   2.064   1.769   5.011 -1.3394 -1.5057 -0.1981
 2962Sol     MW14778   2.048   1.801   4.929 -0.5828 -0.0079 -0.1287
 2963Sol     OW14779   3.120   0.780   9.169  0.1389 -0.5037 -0.1882
 2963Sol     HW14780   3.027   0.788   9.190  0.2913  0.1289  0.2650
 2963Sol     HW14781   3.123   0.779   9.073 -0.2337  0.7725 -0.2231
 2963Sol     MW14782   3.112   0.781   9.162 -0.0092  0.0032 -0.0743
 2964Sol     OW14783   3.277   0.347   1.586  0.7785  0.4912  0.0865
 2964Sol     HW14784   3.268   0.286   1.660  0.6170  1.5946  1.0031
 2964Sol     HW14785   3.339   0.304   1.527  0.9923 -0.3668  0.9174
 2964Sol     MW14786   3.282   0.337   1.588  0.5587 -1.1205  0.0043
 2965Sol     OW14787   1.577   3.042   7.720  0.2865  0.2421 -0.0795
 2965Sol     HW14788   1.522   2.963   7.722  1.2963 -0.5101 -1.4740
 2965Sol     HW14789   1.524   3.109   7.764 -0.8467 -1.0388  0.5418
 2965Sol     MW14790   1.567   3.041   7.724 -0.0170 -0.3697  0.0180
 2966Sol     OW14791   0.583   2.700   5.129  0.1088 -0.4090  0.1880
 2966Sol     HW14792   0.619   2.623   5.084  1.0081 -0.2415  0.5972
 2966Sol     HW14793   0.634   2.773   5.094  0.5016 -0.2212  1.1162
 2966Sol     MW14794   0.591   2.699   5.122 -0.3111 -0.1531  0.4648
 2967Sol     OW14795   1.534   2.386   4.943 -0.1552  0.2077  0.3157
 2967Sol     HW14796   1.606   2.448   4.930  0.6213 -0.6202  0.5967
 2967Sol     HW14797   1.577   2.300   4.946 -1.3130 -0.4500 -1.0814
 2967Sol     MW14798   1.544   2.383   4.942 -0.5213 -0.2954 -0.1879
 2968Sol     OW14799   3.186   1.087   7.625  0.1454  0.1503  0.3860
 2968Sol     HW14800   3.148   1.103   7.538  0.5982  0.9438  0.3228
 2968Sol     HW14801   3.279   1.071   7.607  0.1212 -0.2997  0.6716
 2968Sol     MW14802   3.191   1.087   7.615  0.2167 -0.0810 -0.1285
 2969Sol     OW14803   2.590   0.770   3.942 -0.4147 -0.0911  0.2137
 2969Sol     HW14804   2.526   0.721   3.993 -0.5886 -0.6283 -0.5128
 2969Sol     HW14805   2.631   0.829   4.005 -0.2994 -1.0747  1.0645
 2969Sol     MW14806   2.588   0.771   3.952 -0.0994 -0.1060 -0.4534
 2970Sol     OW14807   1.502   1.209   5.069  1.0401  0.0971 -0.5821
 2970Sol     HW14808   1.547   1.281   5.113 -3.2121  1.8632  1.1441
 2970Sol     HW14809   1.501   1.233   4.976 -0.7839  2.5869  0.0463
 2970Sol     MW14810   1.506   1.217   5.064 -0.4197 -0.3478 -0.1227
 2971Sol     OW14811   2.775   0.183   5.047 -0.0957 -0.3577 -0.0445
 2971Sol     HW14812   2.777   0.238   5.124  1.2738  0.2375 -0.4756
 2971Sol     HW14813   2.773   0.094   5.081  0.1240 -0.0882  0.6799
 2971Sol     MW14814   2.775   0.180   5.057  0.0119 -0.0649 -0.1279
 2972Sol     OW14815   2.702   0.361   8.025 -0.4889 -0.0462 -0.0701
 2972Sol     HW14816   2.694   0.455   8.039 -3.2647 -0.4609  1.5204
 2972Sol     HW14817   2.792   0.348   7.995  1.0351  2.7313  3.0371
 2972Sol     MW14818   2.709   0.368   8.024 -0.4120  0.0047 -0.2215
 2973Sol     OW14819   2.291   0.523   9.755  0.0262 -0.1287  0.1006
 2973Sol     HW14820   2.256   0.602   9.796  0.5135 -0.3561  0.9787
 2973Sol     HW14821   2.240   0.513   9.675  0.4728  1.4935 -0.4053
 2973Sol     MW14822   2.283   0.529   9.752 -0.7165 -0.0843  0.2105
 2974Sol     OW14823   3.216   1.314   7.947 -0.3046  0.7997 -0.3495
 2974Sol     HW14824   3.194   1.400   7.911 -4.2262 -0.5275 -1.3088
 2974Sol     HW14825   3.134   1.282   7.985  1.5212 -1.7946  1.5954
 2974Sol     MW14826   3.207   1.319   7.947 -0.2227  0.5350 -0.2620
 2975Sol     OW14827   1.542   0.840   7.851  0.5285 -0.6078  0.0743
 2975Sol     HW14828   1.505   0.885   7.927  1.8595 -0.2869  0.5482
 2975Sol     HW14829   1.474   0.846   7.784  0.1617  0.9187  0.5689
 2975Sol     MW14830   1.533   0.844   7.852  0.5376  0.4006  0.1853
 2976Sol     OW14831   1.544   2.176   2.049  0.0775 -0.0310 -0.2642
 2976Sol     HW14832   1.473   2.156   2.110 -0.1675  0.5026 -0.3693
 2976Sol     HW14833   1.577   2.261   2.077 -0.6012  0.6145 -1.3886
 2976Sol     MW14834   1.541   2.182   2.057  0.2457  0.0441  0.5022
 2977Sol     OW14835   0.244   1.540   1.866  0.1362 -0.0059 -0.1953
 2977Sol     HW14836   0.258   1.611   1.804  0.3388 -1.0406 -1.3416
 2977Sol     HW14837   0.180   1.483   1.823  2.0004 -1.9418 -0.4689
 2977Sol     MW14838   0.239   1.541   1.857  0.1442  0.0989  0.0656
 2978Sol     OW14839   2.103   2.152   5.527  0.4099 -0.5246 -0.3703
 2978Sol     HW14840   2.017   2.111   5.532  0.3189 -0.2513  0.4728
 2978Sol     HW14841   2.113   2.179   5.436 -0.2073 -0.9679 -0.5638
 2978Sol     MW14842   2.096   2.151   5.520  0.1279  0.0561  0.0773
 2979Sol     OW14843   0.462   0.490   4.737 -0.2913  0.3260  0.0997
 2979Sol     HW14844   0.372   0.457   4.744 -0.0004 -0.1933  1.3421
 2979Sol     HW14845   0.495   0.451   4.656 -1.0643  0.2218 -0.1684
 2979Sol     MW14846   0.457   0.484   4.730 -0.2586 -0.7696  0.3308
 2980Sol     OW14847   0.659   3.178   6.524 -0.4787 -0.1637 -0.2060
 2980Sol     HW14848   0.675   3.231   6.602  1.9438  0.6791 -1.2219
 2980Sol     HW14849   0.696   3.092   6.546  0.0525  0.0250 -0.3474
 2980Sol     MW14850   0.664   3.175   6.533 -0.1938 -0.1711  0.2397
 2981Sol     OW14851   1.641   0.709   6.837  0.2889  0.4326 -0.7580
 2981Sol     HW14852   1.614   0.683   6.749 -0.4304  0.9140 -0.6846
 2981Sol     HW14853   1.714   0.770   6.823 -0.2109  0.9662 -1.0454
 2981Sol     MW14854   1.645   0.712   6.828 -0.1624 -0.3423  0.1395
 2982Sol     OW14855   0.905   2.655   4.026  0.5091 -0.2318  0.1573
 2982Sol     HW14856   0.906   2.746   4.057  0.1851 -0.3794  0.5923
 2982Sol     HW14857   0.953   2.658   3.943 -1.2893  0.7016 -0.8709
 2982Sol     MW14858   0.910   2.664   4.021 -0.2820  0.2117  0.5126
 2983Sol     OW14859   2.057   0.620   6.591  0.6176  0.4220  0.0653
 2983Sol     HW14860   1.978   0.597   6.542  0.0198  2.0138  0.2785
 2983Sol     HW14861   2.027   0.636   6.680  1.6434 -2.0370  0.9154
 2983Sol     MW14862   2.048   0.619   6.594 -0.3019  0.3779 -0.8904
 2984Sol     OW14863   2.021   2.851   8.019  0.3963 -0.0391 -0.2681
 2984Sol     HW14864   2.059   2.808   8.095 -0.5291  0.3102  0.3966
 2984Sol     HW14865   1.938   2.806   8.005 -0.0786  0.8093 -0.2204
 2984Sol     MW14866   2.017   2.844   8.024  0.1725 -0.1620 -0.1894
 2985Sol     OW14867   2.277   3.110   7.087 -0.4750  0.3964 -0.2511
 2985Sol     HW14868   2.199   3.058   7.070  0.7986 -1.6050 -0.1659
 2985Sol     HW14869   2.310   3.079   7.171  0.7555  0.7552 -0.5803
 2985Sol     MW14870   2.273   3.102   7.093 -0.2303  0.5232  0.7875
 2986Sol     OW14871   2.316   3.406   9.859  0.1692  0.9294 -0.4214
 2986Sol     HW14872   2.404   3.443   9.857  0.4632  0.2774  0.3786
 2986Sol     HW14873   2.258   3.482   9.860  0.7376  1.3623 -0.2930
 2986Sol     MW14874   2.319   3.416   9.859 -0.4513 -0.4822 -0.2127
 2987Sol     OW14875   1.895   0.929   2.145 -0.7493  0.3618 -0.3003
 2987Sol     HW14876   1.812   0.887   2.124 -0.4010 -0.3806 -0.1877
 2987Sol     HW14877   1.904   0.999   2.080 -1.1335  0.0179 -0.7215
 2987Sol     MW14878   1.888   0.932   2.138  0.4024  0.2135 -0.3282
 2988Sol     OW14879   1.107   1.077   8.464 -0.4098 -0.0192  0.0832
 2988Sol     HW14880   1.065   1.020   8.530 -1.2833  0.6656  0.1237
 2988Sol     HW14881   1.120   1.020   8.389 -0.2755 -0.5647  0.5113
 2988Sol     MW14882   1.104   1.067   8.464 -0.0414  0.3248  0.1506
 2989Sol     OW14883   0.048   0.834   9.235  0.3295  0.4901  0.6534
 2989Sol     HW14884   0.113   0.764   9.237 -0.0067  0.1967  1.7305
 2989Sol     HW14885  -0.035   0.789   9.221  0.2310  0.7644  0.3551
 2989Sol     MW14886   0.047   0.824   9.234 -0.2562 -0.2276  0.1234
 2990Sol     OW14887   1.349   0.366   5.599  0.1794 -0.0943  0.5204
 2990Sol     HW14888   1.343   0.432   5.668  1.3531 -1.5011  2.0096
 2990Sol     HW14889   1.433   0.383   5.556 -0.7364  1.0429 -0.8790
 2990Sol     MW14890   1.356   0.373   5.601 -0.1274  0.0603 -0.3654
 2991Sol     OW14891   3.144   1.643   3.948  0.3592  0.5689  0.1001
 2991Sol     HW14892   3.227   1.654   3.995 -0.6266  1.6544  1.6459
 2991Sol     HW14893   3.097   1.577   3.998  0.4864 -0.4098 -1.0642
 2991Sol     MW14894   3.147   1.638   3.957  0.1796 -0.4243  0.5157
 2992Sol     OW14895   2.547   3.135   3.329 -0.1496 -0.7825 -0.1490
 2992Sol     HW14896   2.575   3.168   3.244  0.6105  1.0784  0.7853
 2992Sol     HW14897   2.458   3.169   3.340  0.2524  0.1398  0.3637
 2992Sol     MW14898   2.541   3.141   3.323  0.4083 -0.3093  0.1292
 2993Sol     OW14899   1.594   2.293   3.952  0.1673 -0.2247 -0.4760
 2993Sol     HW14900   1.660   2.326   4.013  0.4644 -1.3119 -0.2125
 2993Sol     HW14901   1.630   2.211   3.920 -1.4192 -1.2163  0.2600
 2993Sol     MW14902   1.603   2.289   3.955  0.3689  0.3336  0.0319
 2994Sol     OW14903   0.466   3.268   3.376 -1.1892 -0.2795 -0.2002
 2994Sol     HW14904   0.533   3.259   3.308 -0.5139 -2.5228  0.7406
 2994Sol     HW14905   0.504   3.329   3.439 -0.7785 -0.1469 -0.5748
 2994Sol     MW14906   0.475   3.273   3.375 -0.2120  0.4929 -0.4295
 2995Sol     OW14907   1.108   0.852   5.887 -1.0295  0.3345  0.5823
 2995Sol     HW14908   1.076   0.934   5.848 -1.0932 -0.3911 -0.9062
 2995Sol     HW14909   1.203   0.861   5.885 -0.9959 -0.1699 -0.8085
 2995Sol     MW14910   1.114   0.860   5.883  0.4168 -0.7368  0.0160
 2996Sol     OW14911   0.289   3.151   4.896 -0.6621  0.5573 -0.7697
 2996Sol     HW14912   0.340   3.230   4.880  0.1759  0.4563  1.3628
 2996Sol     HW14913   0.354   3.082   4.910 -1.3883 -0.1168 -0.6753
 2996Sol     MW14914   0.299   3.152   4.896  0.2196 -0.8465 -0.2758
 2997Sol     OW14915   1.408   3.243   8.804 -0.3537  0.4258  0.0697
 2997Sol     HW14916   1.334   3.293   8.837 -1.0590  0.7346 -1.9068
 2997Sol     HW14917   1.429   3.283   8.720 -0.1083 -1.7784 -0.9558
 2997Sol     MW14918   1.403   3.251   8.800  0.1089  0.2464  0.4322
 2998Sol     OW14919   0.943   0.088   3.931  0.1253 -0.0118  0.2471
 2998Sol     HW14920   0.993   0.105   3.851  0.2395 -0.1488  0.2902
 2998Sol     HW14921   0.851   0.086   3.903  0.1229  0.5342  0.2154
 2998Sol     MW14922   0.939   0.090   3.922 -0.1926 -0.0231 -0.1618
 2999Sol     OW14923   2.424   0.778   2.209 -0.4539 -0.4695  0.0119
 2999Sol     HW14924   2.397   0.868   2.227 -0.8255 -0.3371 -1.1239
 2999Sol     HW14925   2.519   0.779   2.221 -0.2261  0.5021 -1.5651
 2999Sol     MW14926   2.430   0.786   2.211 -0.1909 -0.3202  0.1358
 3000Sol     OW14927   3.007   0.355   6.028  0.0391  0.5669 -0.1951
 3000Sol     HW14928   2.963   0.436   6.055  0.2418  0.2004  1.3054
 3000Sol     HW14929   2.953   0.321   5.957 -0.1678  1.9143 -0.6938
 3000Sol     MW14930   2.998   0.359   6.024 -0.9910 -0.1340  0.2488
 3001Sol     OW14931   1.395   3.331   8.101 -0.9890 -0.0411  0.3593
 3001Sol     HW14932   1.484   3.312   8.071 -0.5558  1.2917  0.8066
 3001Sol     HW14933   1.372   3.255   8.155  0.3967  0.2500  1.3913
 3001Sol     MW14934   1.401   3.322   8.103  0.4984 -0.1532  0.1374
   3.31860   3.44750  11.27410
